LAMMPS (30 Jul 2021)
OMP_NUM_THREADS environment is not set. Defaulting to 1 thread. (src/comm.cpp:98)
  using 1 OpenMP thread(s) per MPI task
Reading data file ...
  orthogonal box = (-50.000000 -50.000000 -60.000000) to (50.000000 50.000000 60.000000)
  1 by 1 by 1 MPI processor grid
  reading atoms ...
  700 atoms
Finding 1-2 1-3 1-4 neighbors ...
  special bond factors lj:    0        0        0       
  special bond factors coul:  0        0        0       
     0 = max # of 1-2 neighbors
     0 = max # of 1-3 neighbors
     0 = max # of 1-4 neighbors
     1 = max # of special neighbors
  special bonds CPU = 0.000 seconds
  read_data CPU = 0.074 seconds
Changing box ...
  orthogonal box = (-50.000000 -50.000000 -30.000000) to (50.000000 50.000000 70.000000)
  orthogonal box = (-50.000000 -20.000000 -30.000000) to (50.000000 20.000000 70.000000)
  orthogonal box = (-20.000000 -20.000000 -30.000000) to (20.000000 20.000000 70.000000)
Reading airebo potential file input_files/CH.airebo with DATE: 2011-10-25
700 atoms in group CNT
130 atoms in group topgroup
130 atoms in group botgroup
200 atoms in group mobile
Setting atom values ...
  130 settings made for type
Setting atom values ...
  130 settings made for type
WARNING: Ignoring 'compress yes' for molecular system (src/delete_atoms.cpp:126)
Deleted 7 atoms, new total = 693
Neighbor list info ...
  update every 1 steps, delay 10 steps, check yes
  max neighbors/atom: 2000, page size: 100000
  master list distance cutoff = 10.5
  ghost atom cutoff = 10.5
  binsize = 5.25, bins = 8 8 20
  1 neighbor lists, perpetual/occasional/extra = 1 0 0
  (1) pair airebo, perpetual
      attributes: full, newton on, ghost
      pair build: full/bin/ghost
      stencil: full/ghost/bin/3d
      bin: standard
Setting up Verlet run ...
  Unit style    : metal
  Current step  : 0
  Time step     : 0.0005
Per MPI rank memory allocation (min/avg/max) = 8.251 | 8.251 | 8.251 Mbytes
Step Temp E_pair E_mol TotEng Press 
       0            0   -4979.9019            0   -4979.9019   -3385.0324 
     500    268.59759   -4978.3832            0   -4954.3577    1488.4292 
    1000    293.06353   -4973.4368            0   -4947.2229    1731.3742 
    1500    281.59947   -4969.2861            0   -4944.0976   -2069.4498 
    2000     322.9692   -4972.0421            0   -4943.1531    617.07725 
    2500    293.74208   -4969.8212            0   -4943.5465   -150.73848 
    3000    291.20865   -4969.5673            0   -4943.5192    291.47378 
    3500    320.91288   -4972.3304            0   -4943.6254   -262.13639 
    4000    308.28729   -4971.7532            0   -4944.1775   -101.75031 
    4500    306.46739    -4970.279            0   -4942.8661   -8.3710858 
    5000    289.44148   -4969.2313            0   -4943.3413   -776.20491 
Loop time of 27.4873 on 1 procs for 5000 steps with 693 atoms

Performance: 7.858 ns/day, 3.054 hours/ns, 181.902 timesteps/s
99.7% CPU use with 1 MPI tasks x 1 OpenMP threads

MPI task timing breakdown:
Section |  min time  |  avg time  |  max time  |%varavg| %total
---------------------------------------------------------------
Pair    | 27.376     | 27.376     | 27.376     |   0.0 | 99.59
Bond    | 0.00035236 | 0.00035236 | 0.00035236 |   0.0 |  0.00
Neigh   | 0.039434   | 0.039434   | 0.039434   |   0.0 |  0.14
Comm    | 0.0010821  | 0.0010821  | 0.0010821  |   0.0 |  0.00
Output  | 0.0094016  | 0.0094016  | 0.0094016  |   0.0 |  0.03
Modify  | 0.049969   | 0.049969   | 0.049969   |   0.0 |  0.18
Other   |            | 0.01139    |            |       |  0.04

Nlocal:        693.000 ave         693 max         693 min
Histogram: 1 0 0 0 0 0 0 0 0 0
Nghost:         0.00000 ave           0 max           0 min
Histogram: 1 0 0 0 0 0 0 0 0 0
Neighs:         0.00000 ave           0 max           0 min
Histogram: 1 0 0 0 0 0 0 0 0 0
FullNghs:      110218.0 ave      110218 max      110218 min
Histogram: 1 0 0 0 0 0 0 0 0 0

Total # of neighbors = 110218
Ave neighs/atom = 159.04473
Ave special neighs/atom = 0.0000000
Neighbor list builds = 23
Dangerous builds = 0
WARNING: Temperature for thermo pressure is not for group all (src/thermo.cpp:482)
Displacing atoms ...
Displacing atoms ...
Setting up Verlet run ...
  Unit style    : metal
  Current step  : 5000
  Time step     : 0.0005
Per MPI rank memory allocation (min/avg/max) = 8.251 | 8.251 | 8.251 Mbytes
Step Temp E_pair E_mol TotEng Press 
    5000    298.96152   -4964.8796            0     -4957.46    -1345.607 
    5500    353.55991    -4966.986            0   -4958.2114   -1488.1618 
    6000      355.537   -4969.1424            0   -4960.3187   -1310.1234 
Loop time of 5.47897 on 1 procs for 1000 steps with 693 atoms

Performance: 7.885 ns/day, 3.044 hours/ns, 182.516 timesteps/s
99.6% CPU use with 1 MPI tasks x 1 OpenMP threads

MPI task timing breakdown:
Section |  min time  |  avg time  |  max time  |%varavg| %total
---------------------------------------------------------------
Pair    | 5.4482     | 5.4482     | 5.4482     |   0.0 | 99.44
Bond    | 6.9645e-05 | 6.9645e-05 | 6.9645e-05 |   0.0 |  0.00
Neigh   | 0.0068019  | 0.0068019  | 0.0068019  |   0.0 |  0.12
Comm    | 0.00016586 | 0.00016586 | 0.00016586 |   0.0 |  0.00
Output  | 0.0026021  | 0.0026021  | 0.0026021  |   0.0 |  0.05
Modify  | 0.018855   | 0.018855   | 0.018855   |   0.0 |  0.34
Other   |            | 0.002273   |            |       |  0.04

Nlocal:        693.000 ave         693 max         693 min
Histogram: 1 0 0 0 0 0 0 0 0 0
Nghost:         0.00000 ave           0 max           0 min
Histogram: 1 0 0 0 0 0 0 0 0 0
Neighs:         0.00000 ave           0 max           0 min
Histogram: 1 0 0 0 0 0 0 0 0 0
FullNghs:      109890.0 ave      109890 max      109890 min
Histogram: 1 0 0 0 0 0 0 0 0 0

Total # of neighbors = 109890
Ave neighs/atom = 158.57143
Ave special neighs/atom = 0.0000000
Neighbor list builds = 4
Dangerous builds = 0
Displacing atoms ...
Displacing atoms ...
Setting up Verlet run ...
  Unit style    : metal
  Current step  : 6000
  Time step     : 0.0005
Per MPI rank memory allocation (min/avg/max) = 8.251 | 8.251 | 8.251 Mbytes
Step Temp E_pair E_mol TotEng Press 
    6000      355.537   -4963.5089            0   -4954.6852   -1711.5746 
    6500    347.77524   -4963.5045            0   -4954.8734   -1487.4504 
    7000    324.16289    -4964.384            0    -4956.339   -1369.0589 
Loop time of 5.46371 on 1 procs for 1000 steps with 693 atoms

Performance: 7.907 ns/day, 3.035 hours/ns, 183.026 timesteps/s
99.7% CPU use with 1 MPI tasks x 1 OpenMP threads

MPI task timing breakdown:
Section |  min time  |  avg time  |  max time  |%varavg| %total
---------------------------------------------------------------
Pair    | 5.4409     | 5.4409     | 5.4409     |   0.0 | 99.58
Bond    | 6.8281e-05 | 6.8281e-05 | 6.8281e-05 |   0.0 |  0.00
Neigh   | 0.0033905  | 0.0033905  | 0.0033905  |   0.0 |  0.06
Comm    | 0.00014296 | 0.00014296 | 0.00014296 |   0.0 |  0.00
Output  | 0.00068511 | 0.00068511 | 0.00068511 |   0.0 |  0.01
Modify  | 0.01628    | 0.01628    | 0.01628    |   0.0 |  0.30
Other   |            | 0.002271   |            |       |  0.04

Nlocal:        693.000 ave         693 max         693 min
Histogram: 1 0 0 0 0 0 0 0 0 0
Nghost:         0.00000 ave           0 max           0 min
Histogram: 1 0 0 0 0 0 0 0 0 0
Neighs:         0.00000 ave           0 max           0 min
Histogram: 1 0 0 0 0 0 0 0 0 0
FullNghs:      109660.0 ave      109660 max      109660 min
Histogram: 1 0 0 0 0 0 0 0 0 0

Total # of neighbors = 109660
Ave neighs/atom = 158.23954
Ave special neighs/atom = 0.0000000
Neighbor list builds = 2
Dangerous builds = 0
Displacing atoms ...
Displacing atoms ...
Setting up Verlet run ...
  Unit style    : metal
  Current step  : 7000
  Time step     : 0.0005
Per MPI rank memory allocation (min/avg/max) = 8.251 | 8.251 | 8.251 Mbytes
Step Temp E_pair E_mol TotEng Press 
    7000    324.16289    -4958.273            0   -4950.2279   -1754.9384 
    7500    372.70757   -4960.2207            0   -4950.9708   -2092.9247 
    8000    357.53414   -4960.5706            0   -4951.6973   -1635.4473 
Loop time of 5.46717 on 1 procs for 1000 steps with 693 atoms

Performance: 7.902 ns/day, 3.037 hours/ns, 182.910 timesteps/s
99.7% CPU use with 1 MPI tasks x 1 OpenMP threads

MPI task timing breakdown:
Section |  min time  |  avg time  |  max time  |%varavg| %total
---------------------------------------------------------------
Pair    | 5.4459     | 5.4459     | 5.4459     |   0.0 | 99.61
Bond    | 6.9346e-05 | 6.9346e-05 | 6.9346e-05 |   0.0 |  0.00
Neigh   | 0.0016841  | 0.0016841  | 0.0016841  |   0.0 |  0.03
Comm    | 0.00014316 | 0.00014316 | 0.00014316 |   0.0 |  0.00
Output  | 0.00072399 | 0.00072399 | 0.00072399 |   0.0 |  0.01
Modify  | 0.016351   | 0.016351   | 0.016351   |   0.0 |  0.30
Other   |            | 0.002297   |            |       |  0.04

Nlocal:        693.000 ave         693 max         693 min
Histogram: 1 0 0 0 0 0 0 0 0 0
Nghost:         0.00000 ave           0 max           0 min
Histogram: 1 0 0 0 0 0 0 0 0 0
Neighs:         0.00000 ave           0 max           0 min
Histogram: 1 0 0 0 0 0 0 0 0 0
FullNghs:      109410.0 ave      109410 max      109410 min
Histogram: 1 0 0 0 0 0 0 0 0 0

Total # of neighbors = 109410
Ave neighs/atom = 157.87879
Ave special neighs/atom = 0.0000000
Neighbor list builds = 1
Dangerous builds = 0
Displacing atoms ...
Displacing atoms ...
Setting up Verlet run ...
  Unit style    : metal
  Current step  : 8000
  Time step     : 0.0005
Per MPI rank memory allocation (min/avg/max) = 8.251 | 8.251 | 8.251 Mbytes
Step Temp E_pair E_mol TotEng Press 
    8000    357.53414   -4954.4597            0   -4945.5865   -2028.8393 
    8500    334.67435   -4956.6097            0   -4948.3038   -2385.4553 
    9000    369.19234     -4957.25            0   -4948.0874   -2262.5805 
Loop time of 5.46851 on 1 procs for 1000 steps with 693 atoms

Performance: 7.900 ns/day, 3.038 hours/ns, 182.865 timesteps/s
99.7% CPU use with 1 MPI tasks x 1 OpenMP threads

MPI task timing breakdown:
Section |  min time  |  avg time  |  max time  |%varavg| %total
---------------------------------------------------------------
Pair    | 5.4472     | 5.4472     | 5.4472     |   0.0 | 99.61
Bond    | 7.103e-05  | 7.103e-05  | 7.103e-05  |   0.0 |  0.00
Neigh   | 0.0016881  | 0.0016881  | 0.0016881  |   0.0 |  0.03
Comm    | 0.0001444  | 0.0001444  | 0.0001444  |   0.0 |  0.00
Output  | 0.00068701 | 0.00068701 | 0.00068701 |   0.0 |  0.01
Modify  | 0.016409   | 0.016409   | 0.016409   |   0.0 |  0.30
Other   |            | 0.002302   |            |       |  0.04

Nlocal:        693.000 ave         693 max         693 min
Histogram: 1 0 0 0 0 0 0 0 0 0
Nghost:         0.00000 ave           0 max           0 min
Histogram: 1 0 0 0 0 0 0 0 0 0
Neighs:         0.00000 ave           0 max           0 min
Histogram: 1 0 0 0 0 0 0 0 0 0
FullNghs:      108904.0 ave      108904 max      108904 min
Histogram: 1 0 0 0 0 0 0 0 0 0

Total # of neighbors = 108904
Ave neighs/atom = 157.14863
Ave special neighs/atom = 0.0000000
Neighbor list builds = 1
Dangerous builds = 0
Displacing atoms ...
Displacing atoms ...
Setting up Verlet run ...
  Unit style    : metal
  Current step  : 9000
  Time step     : 0.0005
Per MPI rank memory allocation (min/avg/max) = 8.251 | 8.251 | 8.251 Mbytes
Step Temp E_pair E_mol TotEng Press 
    9000    369.19234   -4949.6914            0   -4940.5288   -2607.2053 
    9500    401.23658   -4951.0706            0   -4941.1128    -2722.423 
   10000    382.64976   -4952.6286            0    -4943.132   -2578.8072 
Loop time of 5.45561 on 1 procs for 1000 steps with 693 atoms

Performance: 7.918 ns/day, 3.031 hours/ns, 183.298 timesteps/s
99.7% CPU use with 1 MPI tasks x 1 OpenMP threads

MPI task timing breakdown:
Section |  min time  |  avg time  |  max time  |%varavg| %total
---------------------------------------------------------------
Pair    | 5.4343     | 5.4343     | 5.4343     |   0.0 | 99.61
Bond    | 7.0449e-05 | 7.0449e-05 | 7.0449e-05 |   0.0 |  0.00
Neigh   | 0.0016953  | 0.0016953  | 0.0016953  |   0.0 |  0.03
Comm    | 0.00014389 | 0.00014389 | 0.00014389 |   0.0 |  0.00
Output  | 0.00071957 | 0.00071957 | 0.00071957 |   0.0 |  0.01
Modify  | 0.016361   | 0.016361   | 0.016361   |   0.0 |  0.30
Other   |            | 0.002303   |            |       |  0.04

Nlocal:        693.000 ave         693 max         693 min
Histogram: 1 0 0 0 0 0 0 0 0 0
Nghost:         0.00000 ave           0 max           0 min
Histogram: 1 0 0 0 0 0 0 0 0 0
Neighs:         0.00000 ave           0 max           0 min
Histogram: 1 0 0 0 0 0 0 0 0 0
FullNghs:      108884.0 ave      108884 max      108884 min
Histogram: 1 0 0 0 0 0 0 0 0 0

Total # of neighbors = 108884
Ave neighs/atom = 157.11977
Ave special neighs/atom = 0.0000000
Neighbor list builds = 1
Dangerous builds = 0
Displacing atoms ...
Displacing atoms ...
Setting up Verlet run ...
  Unit style    : metal
  Current step  : 10000
  Time step     : 0.0005
Per MPI rank memory allocation (min/avg/max) = 8.251 | 8.251 | 8.251 Mbytes
Step Temp E_pair E_mol TotEng Press 
   10000    382.64976     -4944.13            0   -4934.6334   -2896.9346 
   10500    439.18583   -4946.9438            0   -4936.0441   -2981.5796 
   11000    437.97594   -4949.5008            0   -4938.6312   -2757.6929 
Loop time of 5.4556 on 1 procs for 1000 steps with 693 atoms

Performance: 7.918 ns/day, 3.031 hours/ns, 183.298 timesteps/s
99.7% CPU use with 1 MPI tasks x 1 OpenMP threads

MPI task timing breakdown:
Section |  min time  |  avg time  |  max time  |%varavg| %total
---------------------------------------------------------------
Pair    | 5.4343     | 5.4343     | 5.4343     |   0.0 | 99.61
Bond    | 7.0953e-05 | 7.0953e-05 | 7.0953e-05 |   0.0 |  0.00
Neigh   | 0.0016758  | 0.0016758  | 0.0016758  |   0.0 |  0.03
Comm    | 0.00013781 | 0.00013781 | 0.00013781 |   0.0 |  0.00
Output  | 0.00070108 | 0.00070108 | 0.00070108 |   0.0 |  0.01
Modify  | 0.016396   | 0.016396   | 0.016396   |   0.0 |  0.30
Other   |            | 0.002301   |            |       |  0.04

Nlocal:        693.000 ave         693 max         693 min
Histogram: 1 0 0 0 0 0 0 0 0 0
Nghost:         0.00000 ave           0 max           0 min
Histogram: 1 0 0 0 0 0 0 0 0 0
Neighs:         0.00000 ave           0 max           0 min
Histogram: 1 0 0 0 0 0 0 0 0 0
FullNghs:      108310.0 ave      108310 max      108310 min
Histogram: 1 0 0 0 0 0 0 0 0 0

Total # of neighbors = 108310
Ave neighs/atom = 156.29149
Ave special neighs/atom = 0.0000000
Neighbor list builds = 1
Dangerous builds = 0
Displacing atoms ...
Displacing atoms ...
Setting up Verlet run ...
  Unit style    : metal
  Current step  : 11000
  Time step     : 0.0005
Per MPI rank memory allocation (min/avg/max) = 8.251 | 8.251 | 8.251 Mbytes
Step Temp E_pair E_mol TotEng Press 
   11000    437.97594   -4942.3325            0   -4931.4629   -3121.6676 
   11500     425.2628   -4942.3669            0   -4931.8127   -3527.9309 
   12000    389.94467   -4941.5045            0   -4931.8268   -3023.3908 
Loop time of 5.44647 on 1 procs for 1000 steps with 693 atoms

Performance: 7.932 ns/day, 3.026 hours/ns, 183.605 timesteps/s
99.7% CPU use with 1 MPI tasks x 1 OpenMP threads

MPI task timing breakdown:
Section |  min time  |  avg time  |  max time  |%varavg| %total
---------------------------------------------------------------
Pair    | 5.4268     | 5.4268     | 5.4268     |   0.0 | 99.64
Bond    | 6.8303e-05 | 6.8303e-05 | 6.8303e-05 |   0.0 |  0.00
Neigh   | 0          | 0          | 0          |   0.0 |  0.00
Comm    | 0.00012731 | 0.00012731 | 0.00012731 |   0.0 |  0.00
Output  | 0.00070868 | 0.00070868 | 0.00070868 |   0.0 |  0.01
Modify  | 0.016421   | 0.016421   | 0.016421   |   0.0 |  0.30
Other   |            | 0.002308   |            |       |  0.04

Nlocal:        693.000 ave         693 max         693 min
Histogram: 1 0 0 0 0 0 0 0 0 0
Nghost:         0.00000 ave           0 max           0 min
Histogram: 1 0 0 0 0 0 0 0 0 0
Neighs:         0.00000 ave           0 max           0 min
Histogram: 1 0 0 0 0 0 0 0 0 0
FullNghs:      108370.0 ave      108370 max      108370 min
Histogram: 1 0 0 0 0 0 0 0 0 0

Total # of neighbors = 108370
Ave neighs/atom = 156.37807
Ave special neighs/atom = 0.0000000
Neighbor list builds = 0
Dangerous builds = 0
Displacing atoms ...
Displacing atoms ...
Setting up Verlet run ...
  Unit style    : metal
  Current step  : 12000
  Time step     : 0.0005
Per MPI rank memory allocation (min/avg/max) = 8.251 | 8.251 | 8.251 Mbytes
Step Temp E_pair E_mol TotEng Press 
   12000    389.94467   -4934.3731            0   -4924.6955   -3388.2576 
   12500    407.41096   -4936.8679            0   -4926.7568   -3559.2262 
   13000    407.04926   -4937.7605            0   -4927.6584   -3581.5587 
Loop time of 5.43385 on 1 procs for 1000 steps with 693 atoms

Performance: 7.950 ns/day, 3.019 hours/ns, 184.032 timesteps/s
99.7% CPU use with 1 MPI tasks x 1 OpenMP threads

MPI task timing breakdown:
Section |  min time  |  avg time  |  max time  |%varavg| %total
---------------------------------------------------------------
Pair    | 5.4141     | 5.4141     | 5.4141     |   0.0 | 99.64
Bond    | 6.9744e-05 | 6.9744e-05 | 6.9744e-05 |   0.0 |  0.00
Neigh   | 0          | 0          | 0          |   0.0 |  0.00
Comm    | 0.00012808 | 0.00012808 | 0.00012808 |   0.0 |  0.00
Output  | 0.00075156 | 0.00075156 | 0.00075156 |   0.0 |  0.01
Modify  | 0.016531   | 0.016531   | 0.016531   |   0.0 |  0.30
Other   |            | 0.002315   |            |       |  0.04

Nlocal:        693.000 ave         693 max         693 min
Histogram: 1 0 0 0 0 0 0 0 0 0
Nghost:         0.00000 ave           0 max           0 min
Histogram: 1 0 0 0 0 0 0 0 0 0
Neighs:         0.00000 ave           0 max           0 min
Histogram: 1 0 0 0 0 0 0 0 0 0
FullNghs:      108324.0 ave      108324 max      108324 min
Histogram: 1 0 0 0 0 0 0 0 0 0

Total # of neighbors = 108324
Ave neighs/atom = 156.31169
Ave special neighs/atom = 0.0000000
Neighbor list builds = 0
Dangerous builds = 0
Displacing atoms ...
Displacing atoms ...
Setting up Verlet run ...
  Unit style    : metal
  Current step  : 13000
  Time step     : 0.0005
Per MPI rank memory allocation (min/avg/max) = 8.251 | 8.251 | 8.251 Mbytes
Step Temp E_pair E_mol TotEng Press 
   13000    407.04926   -4929.2872            0    -4919.185   -3901.3654 
   13500    430.46749   -4931.6661            0   -4920.9828   -4002.6861 
   14000    414.69319   -4932.0649            0   -4921.7731   -4070.7918 
Loop time of 5.43766 on 1 procs for 1000 steps with 693 atoms

Performance: 7.945 ns/day, 3.021 hours/ns, 183.903 timesteps/s
99.7% CPU use with 1 MPI tasks x 1 OpenMP threads

MPI task timing breakdown:
Section |  min time  |  avg time  |  max time  |%varavg| %total
---------------------------------------------------------------
Pair    | 5.4181     | 5.4181     | 5.4181     |   0.0 | 99.64
Bond    | 6.9488e-05 | 6.9488e-05 | 6.9488e-05 |   0.0 |  0.00
Neigh   | 0          | 0          | 0          |   0.0 |  0.00
Comm    | 0.00012754 | 0.00012754 | 0.00012754 |   0.0 |  0.00
Output  | 0.0007214  | 0.0007214  | 0.0007214  |   0.0 |  0.01
Modify  | 0.016353   | 0.016353   | 0.016353   |   0.0 |  0.30
Other   |            | 0.002307   |            |       |  0.04

Nlocal:        693.000 ave         693 max         693 min
Histogram: 1 0 0 0 0 0 0 0 0 0
Nghost:         0.00000 ave           0 max           0 min
Histogram: 1 0 0 0 0 0 0 0 0 0
Neighs:         0.00000 ave           0 max           0 min
Histogram: 1 0 0 0 0 0 0 0 0 0
FullNghs:      107764.0 ave      107764 max      107764 min
Histogram: 1 0 0 0 0 0 0 0 0 0

Total # of neighbors = 107764
Ave neighs/atom = 155.50361
Ave special neighs/atom = 0.0000000
Neighbor list builds = 0
Dangerous builds = 0
Displacing atoms ...
Displacing atoms ...
Setting up Verlet run ...
  Unit style    : metal
  Current step  : 14000
  Time step     : 0.0005
Per MPI rank memory allocation (min/avg/max) = 8.251 | 8.251 | 8.251 Mbytes
Step Temp E_pair E_mol TotEng Press 
   14000    414.69319   -4923.6032            0   -4913.3114   -4395.4674 
   14500    430.48547   -4924.9516            0   -4914.2678   -4241.0187 
   15000    450.05372   -4925.5421            0   -4914.3727   -4326.6652 
Loop time of 5.42434 on 1 procs for 1000 steps with 693 atoms

Performance: 7.964 ns/day, 3.014 hours/ns, 184.354 timesteps/s
99.7% CPU use with 1 MPI tasks x 1 OpenMP threads

MPI task timing breakdown:
Section |  min time  |  avg time  |  max time  |%varavg| %total
---------------------------------------------------------------
Pair    | 5.4047     | 5.4047     | 5.4047     |   0.0 | 99.64
Bond    | 6.8995e-05 | 6.8995e-05 | 6.8995e-05 |   0.0 |  0.00
Neigh   | 0          | 0          | 0          |   0.0 |  0.00
Comm    | 0.00012947 | 0.00012947 | 0.00012947 |   0.0 |  0.00
Output  | 0.00071015 | 0.00071015 | 0.00071015 |   0.0 |  0.01
Modify  | 0.016447   | 0.016447   | 0.016447   |   0.0 |  0.30
Other   |            | 0.002316   |            |       |  0.04

Nlocal:        693.000 ave         693 max         693 min
Histogram: 1 0 0 0 0 0 0 0 0 0
Nghost:         0.00000 ave           0 max           0 min
Histogram: 1 0 0 0 0 0 0 0 0 0
Neighs:         0.00000 ave           0 max           0 min
Histogram: 1 0 0 0 0 0 0 0 0 0
FullNghs:      107256.0 ave      107256 max      107256 min
Histogram: 1 0 0 0 0 0 0 0 0 0

Total # of neighbors = 107256
Ave neighs/atom = 154.77056
Ave special neighs/atom = 0.0000000
Neighbor list builds = 0
Dangerous builds = 0
Displacing atoms ...
Displacing atoms ...
Setting up Verlet run ...
  Unit style    : metal
  Current step  : 15000
  Time step     : 0.0005
Per MPI rank memory allocation (min/avg/max) = 8.251 | 8.251 | 8.251 Mbytes
Step Temp E_pair E_mol TotEng Press 
   15000    450.05372    -4916.609            0   -4905.4396   -4632.2801 
   15500    423.32312   -4917.7531            0   -4907.2471   -4501.5975 
   16000    423.36962   -4918.9837            0   -4908.4766   -4609.6957 
Loop time of 5.42977 on 1 procs for 1000 steps with 693 atoms

Performance: 7.956 ns/day, 3.017 hours/ns, 184.170 timesteps/s
99.7% CPU use with 1 MPI tasks x 1 OpenMP threads

MPI task timing breakdown:
Section |  min time  |  avg time  |  max time  |%varavg| %total
---------------------------------------------------------------
Pair    | 5.41       | 5.41       | 5.41       |   0.0 | 99.64
Bond    | 7.037e-05  | 7.037e-05  | 7.037e-05  |   0.0 |  0.00
Neigh   | 0          | 0          | 0          |   0.0 |  0.00
Comm    | 0.00013819 | 0.00013819 | 0.00013819 |   0.0 |  0.00
Output  | 0.00071211 | 0.00071211 | 0.00071211 |   0.0 |  0.01
Modify  | 0.016508   | 0.016508   | 0.016508   |   0.0 |  0.30
Other   |            | 0.002312   |            |       |  0.04

Nlocal:        693.000 ave         693 max         693 min
Histogram: 1 0 0 0 0 0 0 0 0 0
Nghost:         0.00000 ave           0 max           0 min
Histogram: 1 0 0 0 0 0 0 0 0 0
Neighs:         0.00000 ave           0 max           0 min
Histogram: 1 0 0 0 0 0 0 0 0 0
FullNghs:      107234.0 ave      107234 max      107234 min
Histogram: 1 0 0 0 0 0 0 0 0 0

Total # of neighbors = 107234
Ave neighs/atom = 154.73882
Ave special neighs/atom = 0.0000000
Neighbor list builds = 0
Dangerous builds = 0
Displacing atoms ...
Displacing atoms ...
Setting up Verlet run ...
  Unit style    : metal
  Current step  : 16000
  Time step     : 0.0005
Per MPI rank memory allocation (min/avg/max) = 8.251 | 8.251 | 8.251 Mbytes
Step Temp E_pair E_mol TotEng Press 
   16000    423.36962   -4909.1177            0   -4898.6105   -4885.0093 
   16500     450.4374     -4909.76            0   -4898.5811   -4944.0508 
   17000    416.98066   -4910.7116            0    -4900.363   -4799.9552 
Loop time of 5.43099 on 1 procs for 1000 steps with 693 atoms

Performance: 7.954 ns/day, 3.017 hours/ns, 184.128 timesteps/s
99.7% CPU use with 1 MPI tasks x 1 OpenMP threads

MPI task timing breakdown:
Section |  min time  |  avg time  |  max time  |%varavg| %total
---------------------------------------------------------------
Pair    | 5.4111     | 5.4111     | 5.4111     |   0.0 | 99.63
Bond    | 7.1411e-05 | 7.1411e-05 | 7.1411e-05 |   0.0 |  0.00
Neigh   | 0          | 0          | 0          |   0.0 |  0.00
Comm    | 0.00012933 | 0.00012933 | 0.00012933 |   0.0 |  0.00
Output  | 0.00071558 | 0.00071558 | 0.00071558 |   0.0 |  0.01
Modify  | 0.01661    | 0.01661    | 0.01661    |   0.0 |  0.31
Other   |            | 0.002338   |            |       |  0.04

Nlocal:        693.000 ave         693 max         693 min
Histogram: 1 0 0 0 0 0 0 0 0 0
Nghost:         0.00000 ave           0 max           0 min
Histogram: 1 0 0 0 0 0 0 0 0 0
Neighs:         0.00000 ave           0 max           0 min
Histogram: 1 0 0 0 0 0 0 0 0 0
FullNghs:      106752.0 ave      106752 max      106752 min
Histogram: 1 0 0 0 0 0 0 0 0 0

Total # of neighbors = 106752
Ave neighs/atom = 154.04329
Ave special neighs/atom = 0.0000000
Neighbor list builds = 0
Dangerous builds = 0
Displacing atoms ...
Displacing atoms ...
Setting up Verlet run ...
  Unit style    : metal
  Current step  : 17000
  Time step     : 0.0005
Per MPI rank memory allocation (min/avg/max) = 8.251 | 8.251 | 8.251 Mbytes
Step Temp E_pair E_mol TotEng Press 
   17000    416.98066   -4900.4147            0   -4890.0661   -5060.7133 
   17500    433.32822   -4901.7598            0   -4891.0055   -5260.3382 
   18000    459.17313   -4903.1097            0    -4891.714   -5263.0177 
Loop time of 5.43343 on 1 procs for 1000 steps with 693 atoms

Performance: 7.951 ns/day, 3.019 hours/ns, 184.046 timesteps/s
99.7% CPU use with 1 MPI tasks x 1 OpenMP threads

MPI task timing breakdown:
Section |  min time  |  avg time  |  max time  |%varavg| %total
---------------------------------------------------------------
Pair    | 5.4137     | 5.4137     | 5.4137     |   0.0 | 99.64
Bond    | 7.1146e-05 | 7.1146e-05 | 7.1146e-05 |   0.0 |  0.00
Neigh   | 0          | 0          | 0          |   0.0 |  0.00
Comm    | 0.00012906 | 0.00012906 | 0.00012906 |   0.0 |  0.00
Output  | 0.00070582 | 0.00070582 | 0.00070582 |   0.0 |  0.01
Modify  | 0.016538   | 0.016538   | 0.016538   |   0.0 |  0.30
Other   |            | 0.002325   |            |       |  0.04

Nlocal:        693.000 ave         693 max         693 min
Histogram: 1 0 0 0 0 0 0 0 0 0
Nghost:         0.00000 ave           0 max           0 min
Histogram: 1 0 0 0 0 0 0 0 0 0
Neighs:         0.00000 ave           0 max           0 min
Histogram: 1 0 0 0 0 0 0 0 0 0
FullNghs:      106708.0 ave      106708 max      106708 min
Histogram: 1 0 0 0 0 0 0 0 0 0

Total # of neighbors = 106708
Ave neighs/atom = 153.97980
Ave special neighs/atom = 0.0000000
Neighbor list builds = 0
Dangerous builds = 0
Displacing atoms ...
Displacing atoms ...
Setting up Verlet run ...
  Unit style    : metal
  Current step  : 18000
  Time step     : 0.0005
Per MPI rank memory allocation (min/avg/max) = 8.251 | 8.251 | 8.251 Mbytes
Step Temp E_pair E_mol TotEng Press 
   18000    459.17313   -4891.7498            0   -4880.3541   -5483.5132 
   18500    482.99001   -4894.7102            0   -4882.7234   -5415.2837 
   19000    527.42311   -4897.1557            0   -4884.0662   -5235.4745 
Loop time of 5.41797 on 1 procs for 1000 steps with 693 atoms

Performance: 7.973 ns/day, 3.010 hours/ns, 184.571 timesteps/s
99.7% CPU use with 1 MPI tasks x 1 OpenMP threads

MPI task timing breakdown:
Section |  min time  |  avg time  |  max time  |%varavg| %total
---------------------------------------------------------------
Pair    | 5.3985     | 5.3985     | 5.3985     |   0.0 | 99.64
Bond    | 6.9748e-05 | 6.9748e-05 | 6.9748e-05 |   0.0 |  0.00
Neigh   | 0          | 0          | 0          |   0.0 |  0.00
Comm    | 0.00012896 | 0.00012896 | 0.00012896 |   0.0 |  0.00
Output  | 0.00068925 | 0.00068925 | 0.00068925 |   0.0 |  0.01
Modify  | 0.016305   | 0.016305   | 0.016305   |   0.0 |  0.30
Other   |            | 0.002308   |            |       |  0.04

Nlocal:        693.000 ave         693 max         693 min
Histogram: 1 0 0 0 0 0 0 0 0 0
Nghost:         0.00000 ave           0 max           0 min
Histogram: 1 0 0 0 0 0 0 0 0 0
Neighs:         0.00000 ave           0 max           0 min
Histogram: 1 0 0 0 0 0 0 0 0 0
FullNghs:      105742.0 ave      105742 max      105742 min
Histogram: 1 0 0 0 0 0 0 0 0 0

Total # of neighbors = 105742
Ave neighs/atom = 152.58586
Ave special neighs/atom = 0.0000000
Neighbor list builds = 0
Dangerous builds = 0
Displacing atoms ...
Displacing atoms ...
Setting up Verlet run ...
  Unit style    : metal
  Current step  : 19000
  Time step     : 0.0005
Per MPI rank memory allocation (min/avg/max) = 8.251 | 8.251 | 8.251 Mbytes
Step Temp E_pair E_mol TotEng Press 
   19000    527.42311   -4886.8765            0    -4873.787   -5492.1538 
   19500    496.56534   -4887.5654            0   -4875.2417   -5455.9896 
   20000    481.67951   -4887.4161            0   -4875.4618   -5320.5694 
Loop time of 5.42132 on 1 procs for 1000 steps with 693 atoms

Performance: 7.969 ns/day, 3.012 hours/ns, 184.457 timesteps/s
99.7% CPU use with 1 MPI tasks x 1 OpenMP threads

MPI task timing breakdown:
Section |  min time  |  avg time  |  max time  |%varavg| %total
---------------------------------------------------------------
Pair    | 5.4001     | 5.4001     | 5.4001     |   0.0 | 99.61
Bond    | 7.0446e-05 | 7.0446e-05 | 7.0446e-05 |   0.0 |  0.00
Neigh   | 0.0016073  | 0.0016073  | 0.0016073  |   0.0 |  0.03
Comm    | 0.00014997 | 0.00014997 | 0.00014997 |   0.0 |  0.00
Output  | 0.00068438 | 0.00068438 | 0.00068438 |   0.0 |  0.01
Modify  | 0.016369   | 0.016369   | 0.016369   |   0.0 |  0.30
Other   |            | 0.002328   |            |       |  0.04

Nlocal:        693.000 ave         693 max         693 min
Histogram: 1 0 0 0 0 0 0 0 0 0
Nghost:         0.00000 ave           0 max           0 min
Histogram: 1 0 0 0 0 0 0 0 0 0
Neighs:         0.00000 ave           0 max           0 min
Histogram: 1 0 0 0 0 0 0 0 0 0
FullNghs:      106022.0 ave      106022 max      106022 min
Histogram: 1 0 0 0 0 0 0 0 0 0

Total # of neighbors = 106022
Ave neighs/atom = 152.98990
Ave special neighs/atom = 0.0000000
Neighbor list builds = 1
Dangerous builds = 0
Displacing atoms ...
Displacing atoms ...
Setting up Verlet run ...
  Unit style    : metal
  Current step  : 20000
  Time step     : 0.0005
Per MPI rank memory allocation (min/avg/max) = 8.251 | 8.251 | 8.251 Mbytes
Step Temp E_pair E_mol TotEng Press 
   20000    481.67951   -4877.2475            0   -4865.2932   -5584.9478 
   20500    501.77614   -4880.0752            0   -4867.6222   -5427.1046 
   21000    421.12876   -4880.3194            0   -4869.8678   -5727.2836 
Loop time of 5.42631 on 1 procs for 1000 steps with 693 atoms

Performance: 7.961 ns/day, 3.015 hours/ns, 184.287 timesteps/s
99.7% CPU use with 1 MPI tasks x 1 OpenMP threads

MPI task timing breakdown:
Section |  min time  |  avg time  |  max time  |%varavg| %total
---------------------------------------------------------------
Pair    | 5.4067     | 5.4067     | 5.4067     |   0.0 | 99.64
Bond    | 7.049e-05  | 7.049e-05  | 7.049e-05  |   0.0 |  0.00
Neigh   | 0          | 0          | 0          |   0.0 |  0.00
Comm    | 0.00013546 | 0.00013546 | 0.00013546 |   0.0 |  0.00
Output  | 0.00070085 | 0.00070085 | 0.00070085 |   0.0 |  0.01
Modify  | 0.016424   | 0.016424   | 0.016424   |   0.0 |  0.30
Other   |            | 0.002318   |            |       |  0.04

Nlocal:        693.000 ave         693 max         693 min
Histogram: 1 0 0 0 0 0 0 0 0 0
Nghost:         0.00000 ave           0 max           0 min
Histogram: 1 0 0 0 0 0 0 0 0 0
Neighs:         0.00000 ave           0 max           0 min
Histogram: 1 0 0 0 0 0 0 0 0 0
FullNghs:      105764.0 ave      105764 max      105764 min
Histogram: 1 0 0 0 0 0 0 0 0 0

Total # of neighbors = 105764
Ave neighs/atom = 152.61760
Ave special neighs/atom = 0.0000000
Neighbor list builds = 0
Dangerous builds = 0
Displacing atoms ...
Displacing atoms ...
Setting up Verlet run ...
  Unit style    : metal
  Current step  : 21000
  Time step     : 0.0005
Per MPI rank memory allocation (min/avg/max) = 8.251 | 8.251 | 8.251 Mbytes
Step Temp E_pair E_mol TotEng Press 
   21000    421.12876   -4869.3563            0   -4858.9047   -5958.6542 
   21500    451.90698   -4869.8124            0    -4858.597   -5849.4646 
   22000    458.76996    -4871.938            0   -4860.5522     -5785.63 
Loop time of 5.42081 on 1 procs for 1000 steps with 693 atoms

Performance: 7.969 ns/day, 3.012 hours/ns, 184.474 timesteps/s
99.7% CPU use with 1 MPI tasks x 1 OpenMP threads

MPI task timing breakdown:
Section |  min time  |  avg time  |  max time  |%varavg| %total
---------------------------------------------------------------
Pair    | 5.401      | 5.401      | 5.401      |   0.0 | 99.64
Bond    | 7.1482e-05 | 7.1482e-05 | 7.1482e-05 |   0.0 |  0.00
Neigh   | 0          | 0          | 0          |   0.0 |  0.00
Comm    | 0.00013066 | 0.00013066 | 0.00013066 |   0.0 |  0.00
Output  | 0.00071493 | 0.00071493 | 0.00071493 |   0.0 |  0.01
Modify  | 0.016497   | 0.016497   | 0.016497   |   0.0 |  0.30
Other   |            | 0.002344   |            |       |  0.04

Nlocal:        693.000 ave         693 max         693 min
Histogram: 1 0 0 0 0 0 0 0 0 0
Nghost:         0.00000 ave           0 max           0 min
Histogram: 1 0 0 0 0 0 0 0 0 0
Neighs:         0.00000 ave           0 max           0 min
Histogram: 1 0 0 0 0 0 0 0 0 0
FullNghs:      105308.0 ave      105308 max      105308 min
Histogram: 1 0 0 0 0 0 0 0 0 0

Total # of neighbors = 105308
Ave neighs/atom = 151.95960
Ave special neighs/atom = 0.0000000
Neighbor list builds = 0
Dangerous builds = 0
Displacing atoms ...
Displacing atoms ...
Setting up Verlet run ...
  Unit style    : metal
  Current step  : 22000
  Time step     : 0.0005
Per MPI rank memory allocation (min/avg/max) = 8.251 | 8.251 | 8.251 Mbytes
Step Temp E_pair E_mol TotEng Press 
   22000    458.76996   -4861.7606            0   -4850.3749   -6041.0531 
   22500    473.61333   -4862.8355            0   -4851.0814   -6074.1107 
   23000    408.29976   -4862.6553            0   -4852.5222   -6140.1136 
Loop time of 5.43228 on 1 procs for 1000 steps with 693 atoms

Performance: 7.952 ns/day, 3.018 hours/ns, 184.085 timesteps/s
99.7% CPU use with 1 MPI tasks x 1 OpenMP threads

MPI task timing breakdown:
Section |  min time  |  avg time  |  max time  |%varavg| %total
---------------------------------------------------------------
Pair    | 5.4125     | 5.4125     | 5.4125     |   0.0 | 99.64
Bond    | 7.0976e-05 | 7.0976e-05 | 7.0976e-05 |   0.0 |  0.00
Neigh   | 0          | 0          | 0          |   0.0 |  0.00
Comm    | 0.00012965 | 0.00012965 | 0.00012965 |   0.0 |  0.00
Output  | 0.00070105 | 0.00070105 | 0.00070105 |   0.0 |  0.01
Modify  | 0.016591   | 0.016591   | 0.016591   |   0.0 |  0.31
Other   |            | 0.002326   |            |       |  0.04

Nlocal:        693.000 ave         693 max         693 min
Histogram: 1 0 0 0 0 0 0 0 0 0
Nghost:         0.00000 ave           0 max           0 min
Histogram: 1 0 0 0 0 0 0 0 0 0
Neighs:         0.00000 ave           0 max           0 min
Histogram: 1 0 0 0 0 0 0 0 0 0
FullNghs:      104958.0 ave      104958 max      104958 min
Histogram: 1 0 0 0 0 0 0 0 0 0

Total # of neighbors = 104958
Ave neighs/atom = 151.45455
Ave special neighs/atom = 0.0000000
Neighbor list builds = 0
Dangerous builds = 0
Displacing atoms ...
Displacing atoms ...
Setting up Verlet run ...
  Unit style    : metal
  Current step  : 23000
  Time step     : 0.0005
Per MPI rank memory allocation (min/avg/max) = 8.251 | 8.251 | 8.251 Mbytes
Step Temp E_pair E_mol TotEng Press 
   23000    408.29976   -4851.2207            0   -4841.0876   -6355.9838 
   23500     451.9926   -4854.0619            0   -4842.8443   -6323.4359 
   24000    421.74829   -4855.5443            0   -4845.0773   -6267.5803 
Loop time of 5.44276 on 1 procs for 1000 steps with 693 atoms

Performance: 7.937 ns/day, 3.024 hours/ns, 183.730 timesteps/s
99.7% CPU use with 1 MPI tasks x 1 OpenMP threads

MPI task timing breakdown:
Section |  min time  |  avg time  |  max time  |%varavg| %total
---------------------------------------------------------------
Pair    | 5.423      | 5.423      | 5.423      |   0.0 | 99.64
Bond    | 7.1658e-05 | 7.1658e-05 | 7.1658e-05 |   0.0 |  0.00
Neigh   | 0          | 0          | 0          |   0.0 |  0.00
Comm    | 0.00013226 | 0.00013226 | 0.00013226 |   0.0 |  0.00
Output  | 0.00071397 | 0.00071397 | 0.00071397 |   0.0 |  0.01
Modify  | 0.016555   | 0.016555   | 0.016555   |   0.0 |  0.30
Other   |            | 0.002327   |            |       |  0.04

Nlocal:        693.000 ave         693 max         693 min
Histogram: 1 0 0 0 0 0 0 0 0 0
Nghost:         0.00000 ave           0 max           0 min
Histogram: 1 0 0 0 0 0 0 0 0 0
Neighs:         0.00000 ave           0 max           0 min
Histogram: 1 0 0 0 0 0 0 0 0 0
FullNghs:      104636.0 ave      104636 max      104636 min
Histogram: 1 0 0 0 0 0 0 0 0 0

Total # of neighbors = 104636
Ave neighs/atom = 150.98990
Ave special neighs/atom = 0.0000000
Neighbor list builds = 0
Dangerous builds = 0
Displacing atoms ...
Displacing atoms ...
Setting up Verlet run ...
  Unit style    : metal
  Current step  : 24000
  Time step     : 0.0005
Per MPI rank memory allocation (min/avg/max) = 8.251 | 8.251 | 8.251 Mbytes
Step Temp E_pair E_mol TotEng Press 
   24000    421.74829   -4844.1876            0   -4833.7206   -6482.8245 
   24500    441.89489   -4844.3055            0   -4833.3386   -6512.0367 
   25000    450.90945   -4846.0419            0   -4834.8513   -6461.4303 
Loop time of 5.46451 on 1 procs for 1000 steps with 693 atoms

Performance: 7.906 ns/day, 3.036 hours/ns, 182.999 timesteps/s
99.7% CPU use with 1 MPI tasks x 1 OpenMP threads

MPI task timing breakdown:
Section |  min time  |  avg time  |  max time  |%varavg| %total
---------------------------------------------------------------
Pair    | 5.4415     | 5.4415     | 5.4415     |   0.0 | 99.58
Bond    | 7.2281e-05 | 7.2281e-05 | 7.2281e-05 |   0.0 |  0.00
Neigh   | 0.0031868  | 0.0031868  | 0.0031868  |   0.0 |  0.06
Comm    | 0.00015437 | 0.00015437 | 0.00015437 |   0.0 |  0.00
Output  | 0.00070646 | 0.00070646 | 0.00070646 |   0.0 |  0.01
Modify  | 0.016563   | 0.016563   | 0.016563   |   0.0 |  0.30
Other   |            | 0.002289   |            |       |  0.04

Nlocal:        693.000 ave         693 max         693 min
Histogram: 1 0 0 0 0 0 0 0 0 0
Nghost:         0.00000 ave           0 max           0 min
Histogram: 1 0 0 0 0 0 0 0 0 0
Neighs:         0.00000 ave           0 max           0 min
Histogram: 1 0 0 0 0 0 0 0 0 0
FullNghs:      104572.0 ave      104572 max      104572 min
Histogram: 1 0 0 0 0 0 0 0 0 0

Total # of neighbors = 104572
Ave neighs/atom = 150.89755
Ave special neighs/atom = 0.0000000
Neighbor list builds = 2
Dangerous builds = 0
Displacing atoms ...
Displacing atoms ...
Setting up Verlet run ...
  Unit style    : metal
  Current step  : 25000
  Time step     : 0.0005
Per MPI rank memory allocation (min/avg/max) = 8.251 | 8.251 | 8.251 Mbytes
Step Temp E_pair E_mol TotEng Press 
   25000    450.90945   -4835.4053            0   -4824.2147   -6706.5886 
   25500    450.56136   -4836.4571            0   -4825.2751    -6629.996 
   26000    426.71563   -4836.4588            0   -4825.8686   -6810.9819 
Loop time of 5.4749 on 1 procs for 1000 steps with 693 atoms

Performance: 7.891 ns/day, 3.042 hours/ns, 182.652 timesteps/s
99.7% CPU use with 1 MPI tasks x 1 OpenMP threads

MPI task timing breakdown:
Section |  min time  |  avg time  |  max time  |%varavg| %total
---------------------------------------------------------------
Pair    | 5.4536     | 5.4536     | 5.4536     |   0.0 | 99.61
Bond    | 7.1957e-05 | 7.1957e-05 | 7.1957e-05 |   0.0 |  0.00
Neigh   | 0.0015808  | 0.0015808  | 0.0015808  |   0.0 |  0.03
Comm    | 0.00013872 | 0.00013872 | 0.00013872 |   0.0 |  0.00
Output  | 0.0006945  | 0.0006945  | 0.0006945  |   0.0 |  0.01
Modify  | 0.016497   | 0.016497   | 0.016497   |   0.0 |  0.30
Other   |            | 0.002306   |            |       |  0.04

Nlocal:        693.000 ave         693 max         693 min
Histogram: 1 0 0 0 0 0 0 0 0 0
Nghost:         0.00000 ave           0 max           0 min
Histogram: 1 0 0 0 0 0 0 0 0 0
Neighs:         0.00000 ave           0 max           0 min
Histogram: 1 0 0 0 0 0 0 0 0 0
FullNghs:      103946.0 ave      103946 max      103946 min
Histogram: 1 0 0 0 0 0 0 0 0 0

Total # of neighbors = 103946
Ave neighs/atom = 149.99423
Ave special neighs/atom = 0.0000000
Neighbor list builds = 1
Dangerous builds = 0
Displacing atoms ...
Displacing atoms ...
Setting up Verlet run ...
  Unit style    : metal
  Current step  : 26000
  Time step     : 0.0005
Per MPI rank memory allocation (min/avg/max) = 8.251 | 8.251 | 8.251 Mbytes
Step Temp E_pair E_mol TotEng Press 
   26000    426.71563   -4825.4792            0    -4814.889   -7045.7585 
   26500    421.35838   -4826.3158            0   -4815.8585   -6851.4875 
   27000     410.9715   -4826.9942            0   -4816.7947   -7016.3017 
Loop time of 5.48712 on 1 procs for 1000 steps with 693 atoms

Performance: 7.873 ns/day, 3.048 hours/ns, 182.245 timesteps/s
99.7% CPU use with 1 MPI tasks x 1 OpenMP threads

MPI task timing breakdown:
Section |  min time  |  avg time  |  max time  |%varavg| %total
---------------------------------------------------------------
Pair    | 5.4675     | 5.4675     | 5.4675     |   0.0 | 99.64
Bond    | 7.5763e-05 | 7.5763e-05 | 7.5763e-05 |   0.0 |  0.00
Neigh   | 0          | 0          | 0          |   0.0 |  0.00
Comm    | 0.00012909 | 0.00012909 | 0.00012909 |   0.0 |  0.00
Output  | 0.00071539 | 0.00071539 | 0.00071539 |   0.0 |  0.01
Modify  | 0.016406   | 0.016406   | 0.016406   |   0.0 |  0.30
Other   |            | 0.002321   |            |       |  0.04

Nlocal:        693.000 ave         693 max         693 min
Histogram: 1 0 0 0 0 0 0 0 0 0
Nghost:         0.00000 ave           0 max           0 min
Histogram: 1 0 0 0 0 0 0 0 0 0
Neighs:         0.00000 ave           0 max           0 min
Histogram: 1 0 0 0 0 0 0 0 0 0
FullNghs:      103588.0 ave      103588 max      103588 min
Histogram: 1 0 0 0 0 0 0 0 0 0

Total # of neighbors = 103588
Ave neighs/atom = 149.47763
Ave special neighs/atom = 0.0000000
Neighbor list builds = 0
Dangerous builds = 0
Displacing atoms ...
Displacing atoms ...
Setting up Verlet run ...
  Unit style    : metal
  Current step  : 27000
  Time step     : 0.0005
Per MPI rank memory allocation (min/avg/max) = 8.251 | 8.251 | 8.251 Mbytes
Step Temp E_pair E_mol TotEng Press 
   27000     410.9715   -4815.1207            0   -4804.9212    -7215.179 
   27500    388.89598   -4816.7108            0   -4807.0592   -7170.5974 
   28000     371.8235   -4816.9349            0    -4807.707   -6929.8749 
Loop time of 5.50765 on 1 procs for 1000 steps with 693 atoms

Performance: 7.844 ns/day, 3.060 hours/ns, 181.565 timesteps/s
99.7% CPU use with 1 MPI tasks x 1 OpenMP threads

MPI task timing breakdown:
Section |  min time  |  avg time  |  max time  |%varavg| %total
---------------------------------------------------------------
Pair    | 5.4863     | 5.4863     | 5.4863     |   0.0 | 99.61
Bond    | 7.2935e-05 | 7.2935e-05 | 7.2935e-05 |   0.0 |  0.00
Neigh   | 0.0015842  | 0.0015842  | 0.0015842  |   0.0 |  0.03
Comm    | 0.00014027 | 0.00014027 | 0.00014027 |   0.0 |  0.00
Output  | 0.00073312 | 0.00073312 | 0.00073312 |   0.0 |  0.01
Modify  | 0.016477   | 0.016477   | 0.016477   |   0.0 |  0.30
Other   |            | 0.002311   |            |       |  0.04

Nlocal:        693.000 ave         693 max         693 min
Histogram: 1 0 0 0 0 0 0 0 0 0
Nghost:         0.00000 ave           0 max           0 min
Histogram: 1 0 0 0 0 0 0 0 0 0
Neighs:         0.00000 ave           0 max           0 min
Histogram: 1 0 0 0 0 0 0 0 0 0
FullNghs:      103530.0 ave      103530 max      103530 min
Histogram: 1 0 0 0 0 0 0 0 0 0

Total # of neighbors = 103530
Ave neighs/atom = 149.39394
Ave special neighs/atom = 0.0000000
Neighbor list builds = 1
Dangerous builds = 0
Displacing atoms ...
Displacing atoms ...
Setting up Verlet run ...
  Unit style    : metal
  Current step  : 28000
  Time step     : 0.0005
Per MPI rank memory allocation (min/avg/max) = 8.251 | 8.251 | 8.251 Mbytes
Step Temp E_pair E_mol TotEng Press 
   28000     371.8235   -4805.1014            0   -4795.8735   -7128.5053 
   28500    413.27896   -4807.2399            0   -4796.9832    -7594.971 
   29000    385.49412   -4805.2252            0   -4795.6581   -7317.7119 
Loop time of 5.50052 on 1 procs for 1000 steps with 693 atoms

Performance: 7.854 ns/day, 3.056 hours/ns, 181.801 timesteps/s
99.7% CPU use with 1 MPI tasks x 1 OpenMP threads

MPI task timing breakdown:
Section |  min time  |  avg time  |  max time  |%varavg| %total
---------------------------------------------------------------
Pair    | 5.4795     | 5.4795     | 5.4795     |   0.0 | 99.62
Bond    | 7.0973e-05 | 7.0973e-05 | 7.0973e-05 |   0.0 |  0.00
Neigh   | 0.0015619  | 0.0015619  | 0.0015619  |   0.0 |  0.03
Comm    | 0.0001382  | 0.0001382  | 0.0001382  |   0.0 |  0.00
Output  | 0.00071008 | 0.00071008 | 0.00071008 |   0.0 |  0.01
Modify  | 0.016281   | 0.016281   | 0.016281   |   0.0 |  0.30
Other   |            | 0.002307   |            |       |  0.04

Nlocal:        693.000 ave         693 max         693 min
Histogram: 1 0 0 0 0 0 0 0 0 0
Nghost:         0.00000 ave           0 max           0 min
Histogram: 1 0 0 0 0 0 0 0 0 0
Neighs:         0.00000 ave           0 max           0 min
Histogram: 1 0 0 0 0 0 0 0 0 0
FullNghs:      103172.0 ave      103172 max      103172 min
Histogram: 1 0 0 0 0 0 0 0 0 0

Total # of neighbors = 103172
Ave neighs/atom = 148.87734
Ave special neighs/atom = 0.0000000
Neighbor list builds = 1
Dangerous builds = 0
Displacing atoms ...
Displacing atoms ...
Setting up Verlet run ...
  Unit style    : metal
  Current step  : 29000
  Time step     : 0.0005
Per MPI rank memory allocation (min/avg/max) = 8.251 | 8.251 | 8.251 Mbytes
Step Temp E_pair E_mol TotEng Press 
   29000    385.49412   -4792.8086            0   -4783.2415   -7555.1592 
   29500    464.10621   -4795.9233            0   -4784.4051   -7718.8955 
   30000    422.69218   -4795.7086            0   -4785.2183   -7713.1092 
Loop time of 5.54618 on 1 procs for 1000 steps with 693 atoms

Performance: 7.789 ns/day, 3.081 hours/ns, 180.304 timesteps/s
99.7% CPU use with 1 MPI tasks x 1 OpenMP threads

MPI task timing breakdown:
Section |  min time  |  avg time  |  max time  |%varavg| %total
---------------------------------------------------------------
Pair    | 5.5267     | 5.5267     | 5.5267     |   0.0 | 99.65
Bond    | 7.2511e-05 | 7.2511e-05 | 7.2511e-05 |   0.0 |  0.00
Neigh   | 0          | 0          | 0          |   0.0 |  0.00
Comm    | 0.00013352 | 0.00013352 | 0.00013352 |   0.0 |  0.00
Output  | 0.00069898 | 0.00069898 | 0.00069898 |   0.0 |  0.01
Modify  | 0.016215   | 0.016215   | 0.016215   |   0.0 |  0.29
Other   |            | 0.002322   |            |       |  0.04

Nlocal:        693.000 ave         693 max         693 min
Histogram: 1 0 0 0 0 0 0 0 0 0
Nghost:         0.00000 ave           0 max           0 min
Histogram: 1 0 0 0 0 0 0 0 0 0
Neighs:         0.00000 ave           0 max           0 min
Histogram: 1 0 0 0 0 0 0 0 0 0
FullNghs:      102954.0 ave      102954 max      102954 min
Histogram: 1 0 0 0 0 0 0 0 0 0

Total # of neighbors = 102954
Ave neighs/atom = 148.56277
Ave special neighs/atom = 0.0000000
Neighbor list builds = 0
Dangerous builds = 0
Displacing atoms ...
Displacing atoms ...
Setting up Verlet run ...
  Unit style    : metal
  Current step  : 30000
  Time step     : 0.0005
Per MPI rank memory allocation (min/avg/max) = 8.251 | 8.251 | 8.251 Mbytes
Step Temp E_pair E_mol TotEng Press 
   30000    422.69218   -4783.2866            0   -4772.7963   -7945.7956 
   30500    393.81582   -4783.9682            0   -4774.1945   -7709.6141 
   31000    381.98071   -4784.8512            0   -4775.3712   -8146.3542 
Loop time of 5.54061 on 1 procs for 1000 steps with 693 atoms

Performance: 7.797 ns/day, 3.078 hours/ns, 180.486 timesteps/s
99.7% CPU use with 1 MPI tasks x 1 OpenMP threads

MPI task timing breakdown:
Section |  min time  |  avg time  |  max time  |%varavg| %total
---------------------------------------------------------------
Pair    | 5.5214     | 5.5214     | 5.5214     |   0.0 | 99.65
Bond    | 7.1242e-05 | 7.1242e-05 | 7.1242e-05 |   0.0 |  0.00
Neigh   | 0          | 0          | 0          |   0.0 |  0.00
Comm    | 0.00013955 | 0.00013955 | 0.00013955 |   0.0 |  0.00
Output  | 0.0006932  | 0.0006932  | 0.0006932  |   0.0 |  0.01
Modify  | 0.016026   | 0.016026   | 0.016026   |   0.0 |  0.29
Other   |            | 0.00227    |            |       |  0.04

Nlocal:        693.000 ave         693 max         693 min
Histogram: 1 0 0 0 0 0 0 0 0 0
Nghost:         0.00000 ave           0 max           0 min
Histogram: 1 0 0 0 0 0 0 0 0 0
Neighs:         0.00000 ave           0 max           0 min
Histogram: 1 0 0 0 0 0 0 0 0 0
FullNghs:      102622.0 ave      102622 max      102622 min
Histogram: 1 0 0 0 0 0 0 0 0 0

Total # of neighbors = 102622
Ave neighs/atom = 148.08369
Ave special neighs/atom = 0.0000000
Neighbor list builds = 0
Dangerous builds = 0
Displacing atoms ...
Displacing atoms ...
Setting up Verlet run ...
  Unit style    : metal
  Current step  : 31000
  Time step     : 0.0005
Per MPI rank memory allocation (min/avg/max) = 8.251 | 8.251 | 8.251 Mbytes
Step Temp E_pair E_mol TotEng Press 
   31000    381.98071    -4772.463            0    -4762.983   -8342.5566 
   31500    420.45897   -4774.4864            0   -4764.0515   -8191.8372 
   32000    436.65035   -4775.2617            0   -4764.4249   -7651.4434 
Loop time of 5.58756 on 1 procs for 1000 steps with 693 atoms

Performance: 7.731 ns/day, 3.104 hours/ns, 178.969 timesteps/s
99.7% CPU use with 1 MPI tasks x 1 OpenMP threads

MPI task timing breakdown:
Section |  min time  |  avg time  |  max time  |%varavg| %total
---------------------------------------------------------------
Pair    | 5.5669     | 5.5669     | 5.5669     |   0.0 | 99.63
Bond    | 7.5024e-05 | 7.5024e-05 | 7.5024e-05 |   0.0 |  0.00
Neigh   | 0.0015515  | 0.0015515  | 0.0015515  |   0.0 |  0.03
Comm    | 0.00014479 | 0.00014479 | 0.00014479 |   0.0 |  0.00
Output  | 0.00071445 | 0.00071445 | 0.00071445 |   0.0 |  0.01
Modify  | 0.016308   | 0.016308   | 0.016308   |   0.0 |  0.29
Other   |            | 0.001899   |            |       |  0.03

Nlocal:        693.000 ave         693 max         693 min
Histogram: 1 0 0 0 0 0 0 0 0 0
Nghost:         0.00000 ave           0 max           0 min
Histogram: 1 0 0 0 0 0 0 0 0 0
Neighs:         0.00000 ave           0 max           0 min
Histogram: 1 0 0 0 0 0 0 0 0 0
FullNghs:      102424.0 ave      102424 max      102424 min
Histogram: 1 0 0 0 0 0 0 0 0 0

Total # of neighbors = 102424
Ave neighs/atom = 147.79798
Ave special neighs/atom = 0.0000000
Neighbor list builds = 1
Dangerous builds = 0
Displacing atoms ...
Displacing atoms ...
Setting up Verlet run ...
  Unit style    : metal
  Current step  : 32000
  Time step     : 0.0005
Per MPI rank memory allocation (min/avg/max) = 8.251 | 8.251 | 8.251 Mbytes
Step Temp E_pair E_mol TotEng Press 
   32000    436.65035   -4762.9697            0    -4752.133    -7858.611 
   32500    468.96837   -4765.2619            0    -4753.623   -8379.9678 
   33000    458.23713   -4767.7874            0   -4756.4149   -8066.2134 
Loop time of 5.57825 on 1 procs for 1000 steps with 693 atoms

Performance: 7.744 ns/day, 3.099 hours/ns, 179.268 timesteps/s
99.7% CPU use with 1 MPI tasks x 1 OpenMP threads

MPI task timing breakdown:
Section |  min time  |  avg time  |  max time  |%varavg| %total
---------------------------------------------------------------
Pair    | 5.5589     | 5.5589     | 5.5589     |   0.0 | 99.65
Bond    | 7.0176e-05 | 7.0176e-05 | 7.0176e-05 |   0.0 |  0.00
Neigh   | 0.0015493  | 0.0015493  | 0.0015493  |   0.0 |  0.03
Comm    | 0.00014392 | 0.00014392 | 0.00014392 |   0.0 |  0.00
Output  | 0.00069097 | 0.00069097 | 0.00069097 |   0.0 |  0.01
Modify  | 0.014978   | 0.014978   | 0.014978   |   0.0 |  0.27
Other   |            | 0.001899   |            |       |  0.03

Nlocal:        693.000 ave         693 max         693 min
Histogram: 1 0 0 0 0 0 0 0 0 0
Nghost:         0.00000 ave           0 max           0 min
Histogram: 1 0 0 0 0 0 0 0 0 0
Neighs:         0.00000 ave           0 max           0 min
Histogram: 1 0 0 0 0 0 0 0 0 0
FullNghs:      102064.0 ave      102064 max      102064 min
Histogram: 1 0 0 0 0 0 0 0 0 0

Total # of neighbors = 102064
Ave neighs/atom = 147.27850
Ave special neighs/atom = 0.0000000
Neighbor list builds = 1
Dangerous builds = 0
Displacing atoms ...
Displacing atoms ...
Setting up Verlet run ...
  Unit style    : metal
  Current step  : 33000
  Time step     : 0.0005
Per MPI rank memory allocation (min/avg/max) = 8.251 | 8.251 | 8.251 Mbytes
Step Temp E_pair E_mol TotEng Press 
   33000    458.23713   -4755.2174            0   -4743.8449   -8313.9975 
   33500    422.50559   -4755.5599            0   -4745.0742   -8334.6182 
   34000    409.67539   -4756.1518            0   -4745.9845   -8066.5373 
Loop time of 6.08633 on 1 procs for 1000 steps with 693 atoms

Performance: 7.098 ns/day, 3.381 hours/ns, 164.303 timesteps/s
91.7% CPU use with 1 MPI tasks x 1 OpenMP threads

MPI task timing breakdown:
Section |  min time  |  avg time  |  max time  |%varavg| %total
---------------------------------------------------------------
Pair    | 5.5819     | 5.5819     | 5.5819     |   0.0 | 91.71
Bond    | 7.2585e-05 | 7.2585e-05 | 7.2585e-05 |   0.0 |  0.00
Neigh   | 0          | 0          | 0          |   0.0 |  0.00
Comm    | 0.0001383  | 0.0001383  | 0.0001383  |   0.0 |  0.00
Output  | 0.00074193 | 0.00074193 | 0.00074193 |   0.0 |  0.01
Modify  | 0.50154    | 0.50154    | 0.50154    |   0.0 |  8.24
Other   |            | 0.001894   |            |       |  0.03

Nlocal:        693.000 ave         693 max         693 min
Histogram: 1 0 0 0 0 0 0 0 0 0
Nghost:         0.00000 ave           0 max           0 min
Histogram: 1 0 0 0 0 0 0 0 0 0
Neighs:         0.00000 ave           0 max           0 min
Histogram: 1 0 0 0 0 0 0 0 0 0
FullNghs:      102168.0 ave      102168 max      102168 min
Histogram: 1 0 0 0 0 0 0 0 0 0

Total # of neighbors = 102168
Ave neighs/atom = 147.42857
Ave special neighs/atom = 0.0000000
Neighbor list builds = 0
Dangerous builds = 0
Displacing atoms ...
Displacing atoms ...
Setting up Verlet run ...
  Unit style    : metal
  Current step  : 34000
  Time step     : 0.0005
Per MPI rank memory allocation (min/avg/max) = 8.251 | 8.251 | 8.251 Mbytes
Step Temp E_pair E_mol TotEng Press 
   34000    409.67539   -4743.5133            0    -4733.346   -8287.9672 
   34500    440.63219   -4746.6078            0   -4735.6722   -8386.2965 
   35000    528.83678   -4748.4871            0   -4735.3624   -8337.2299 
Loop time of 5.66835 on 1 procs for 1000 steps with 693 atoms

Performance: 7.621 ns/day, 3.149 hours/ns, 176.418 timesteps/s
99.7% CPU use with 1 MPI tasks x 1 OpenMP threads

MPI task timing breakdown:
Section |  min time  |  avg time  |  max time  |%varavg| %total
---------------------------------------------------------------
Pair    | 5.6476     | 5.6476     | 5.6476     |   0.0 | 99.63
Bond    | 7.3143e-05 | 7.3143e-05 | 7.3143e-05 |   0.0 |  0.00
Neigh   | 0.0030813  | 0.0030813  | 0.0030813  |   0.0 |  0.05
Comm    | 0.00015115 | 0.00015115 | 0.00015115 |   0.0 |  0.00
Output  | 0.00068864 | 0.00068864 | 0.00068864 |   0.0 |  0.01
Modify  | 0.014854   | 0.014854   | 0.014854   |   0.0 |  0.26
Other   |            | 0.00189    |            |       |  0.03

Nlocal:        693.000 ave         693 max         693 min
Histogram: 1 0 0 0 0 0 0 0 0 0
Nghost:         0.00000 ave           0 max           0 min
Histogram: 1 0 0 0 0 0 0 0 0 0
Neighs:         0.00000 ave           0 max           0 min
Histogram: 1 0 0 0 0 0 0 0 0 0
FullNghs:      101522.0 ave      101522 max      101522 min
Histogram: 1 0 0 0 0 0 0 0 0 0

Total # of neighbors = 101522
Ave neighs/atom = 146.49639
Ave special neighs/atom = 0.0000000
Neighbor list builds = 2
Dangerous builds = 0
Displacing atoms ...
Displacing atoms ...
Setting up Verlet run ...
  Unit style    : metal
  Current step  : 35000
  Time step     : 0.0005
Per MPI rank memory allocation (min/avg/max) = 8.251 | 8.251 | 8.251 Mbytes
Step Temp E_pair E_mol TotEng Press 
   35000    528.83678   -4734.4958            0   -4721.3711   -8642.8551 
   35500    530.20085   -4735.1215            0    -4721.963   -8361.5959 
   36000    459.58224   -4734.9557            0   -4723.5498   -8564.8024 
Loop time of 5.69298 on 1 procs for 1000 steps with 693 atoms

Performance: 7.588 ns/day, 3.163 hours/ns, 175.655 timesteps/s
99.7% CPU use with 1 MPI tasks x 1 OpenMP threads

MPI task timing breakdown:
Section |  min time  |  avg time  |  max time  |%varavg| %total
---------------------------------------------------------------
Pair    | 5.6753     | 5.6753     | 5.6753     |   0.0 | 99.69
Bond    | 7.2569e-05 | 7.2569e-05 | 7.2569e-05 |   0.0 |  0.00
Neigh   | 0          | 0          | 0          |   0.0 |  0.00
Comm    | 0.00012642 | 0.00012642 | 0.00012642 |   0.0 |  0.00
Output  | 0.00071658 | 0.00071658 | 0.00071658 |   0.0 |  0.01
Modify  | 0.014913   | 0.014913   | 0.014913   |   0.0 |  0.26
Other   |            | 0.0019     |            |       |  0.03

Nlocal:        693.000 ave         693 max         693 min
Histogram: 1 0 0 0 0 0 0 0 0 0
Nghost:         0.00000 ave           0 max           0 min
Histogram: 1 0 0 0 0 0 0 0 0 0
Neighs:         0.00000 ave           0 max           0 min
Histogram: 1 0 0 0 0 0 0 0 0 0
FullNghs:      101642.0 ave      101642 max      101642 min
Histogram: 1 0 0 0 0 0 0 0 0 0

Total # of neighbors = 101642
Ave neighs/atom = 146.66955
Ave special neighs/atom = 0.0000000
Neighbor list builds = 0
Dangerous builds = 0
Displacing atoms ...
Displacing atoms ...
Setting up Verlet run ...
  Unit style    : metal
  Current step  : 36000
  Time step     : 0.0005
Per MPI rank memory allocation (min/avg/max) = 8.251 | 8.251 | 8.251 Mbytes
Step Temp E_pair E_mol TotEng Press 
   36000    459.58224   -4721.7701            0   -4710.3642   -8906.7585 
   36500    514.42416   -4725.4091            0   -4712.6421   -8693.0635 
   37000    480.11888   -4727.5324            0   -4715.6168    -8558.338 
Loop time of 5.69669 on 1 procs for 1000 steps with 693 atoms

Performance: 7.583 ns/day, 3.165 hours/ns, 175.541 timesteps/s
99.7% CPU use with 1 MPI tasks x 1 OpenMP threads

MPI task timing breakdown:
Section |  min time  |  avg time  |  max time  |%varavg| %total
---------------------------------------------------------------
Pair    | 5.6791     | 5.6791     | 5.6791     |   0.0 | 99.69
Bond    | 7.5373e-05 | 7.5373e-05 | 7.5373e-05 |   0.0 |  0.00
Neigh   | 0          | 0          | 0          |   0.0 |  0.00
Comm    | 0.00012856 | 0.00012856 | 0.00012856 |   0.0 |  0.00
Output  | 0.00072659 | 0.00072659 | 0.00072659 |   0.0 |  0.01
Modify  | 0.014772   | 0.014772   | 0.014772   |   0.0 |  0.26
Other   |            | 0.001904   |            |       |  0.03

Nlocal:        693.000 ave         693 max         693 min
Histogram: 1 0 0 0 0 0 0 0 0 0
Nghost:         0.00000 ave           0 max           0 min
Histogram: 1 0 0 0 0 0 0 0 0 0
Neighs:         0.00000 ave           0 max           0 min
Histogram: 1 0 0 0 0 0 0 0 0 0
FullNghs:      101310.0 ave      101310 max      101310 min
Histogram: 1 0 0 0 0 0 0 0 0 0

Total # of neighbors = 101310
Ave neighs/atom = 146.19048
Ave special neighs/atom = 0.0000000
Neighbor list builds = 0
Dangerous builds = 0
Displacing atoms ...
Displacing atoms ...
Setting up Verlet run ...
  Unit style    : metal
  Current step  : 37000
  Time step     : 0.0005
Per MPI rank memory allocation (min/avg/max) = 8.251 | 8.251 | 8.251 Mbytes
Step Temp E_pair E_mol TotEng Press 
   37000    480.11888   -4714.0752            0   -4702.1597   -8845.0514 
   37500    521.24194   -4715.2357            0   -4702.2995   -8856.9691 
   38000     512.5404   -4717.4368            0   -4704.7166   -8610.5563 
Loop time of 5.81747 on 1 procs for 1000 steps with 693 atoms

Performance: 7.426 ns/day, 3.232 hours/ns, 171.896 timesteps/s
98.4% CPU use with 1 MPI tasks x 1 OpenMP threads

MPI task timing breakdown:
Section |  min time  |  avg time  |  max time  |%varavg| %total
---------------------------------------------------------------
Pair    | 5.7227     | 5.7227     | 5.7227     |   0.0 | 98.37
Bond    | 7.5283e-05 | 7.5283e-05 | 7.5283e-05 |   0.0 |  0.00
Neigh   | 0          | 0          | 0          |   0.0 |  0.00
Comm    | 0.00012842 | 0.00012842 | 0.00012842 |   0.0 |  0.00
Output  | 0.00067773 | 0.00067773 | 0.00067773 |   0.0 |  0.01
Modify  | 0.091951   | 0.091951   | 0.091951   |   0.0 |  1.58
Other   |            | 0.00191    |            |       |  0.03

Nlocal:        693.000 ave         693 max         693 min
Histogram: 1 0 0 0 0 0 0 0 0 0
Nghost:         0.00000 ave           0 max           0 min
Histogram: 1 0 0 0 0 0 0 0 0 0
Neighs:         0.00000 ave           0 max           0 min
Histogram: 1 0 0 0 0 0 0 0 0 0
FullNghs:      101206.0 ave      101206 max      101206 min
Histogram: 1 0 0 0 0 0 0 0 0 0

Total # of neighbors = 101206
Ave neighs/atom = 146.04040
Ave special neighs/atom = 0.0000000
Neighbor list builds = 0
Dangerous builds = 0
Displacing atoms ...
Displacing atoms ...
Setting up Verlet run ...
  Unit style    : metal
  Current step  : 38000
  Time step     : 0.0005
Per MPI rank memory allocation (min/avg/max) = 8.251 | 8.251 | 8.251 Mbytes
Step Temp E_pair E_mol TotEng Press 
   38000     512.5404   -4704.0782            0    -4691.358    -8877.396 
   38500     528.7572   -4705.3311            0   -4692.2085   -9217.7099 
   39000    476.19939   -4705.9897            0   -4694.1714   -8748.5125 
Loop time of 5.78721 on 1 procs for 1000 steps with 693 atoms

Performance: 7.465 ns/day, 3.215 hours/ns, 172.795 timesteps/s
99.7% CPU use with 1 MPI tasks x 1 OpenMP threads

MPI task timing breakdown:
Section |  min time  |  avg time  |  max time  |%varavg| %total
---------------------------------------------------------------
Pair    | 5.7691     | 5.7691     | 5.7691     |   0.0 | 99.69
Bond    | 7.6737e-05 | 7.6737e-05 | 7.6737e-05 |   0.0 |  0.00
Neigh   | 0          | 0          | 0          |   0.0 |  0.00
Comm    | 0.00012797 | 0.00012797 | 0.00012797 |   0.0 |  0.00
Output  | 0.00068152 | 0.00068152 | 0.00068152 |   0.0 |  0.01
Modify  | 0.015354   | 0.015354   | 0.015354   |   0.0 |  0.27
Other   |            | 0.001915   |            |       |  0.03

Nlocal:        693.000 ave         693 max         693 min
Histogram: 1 0 0 0 0 0 0 0 0 0
Nghost:         0.00000 ave           0 max           0 min
Histogram: 1 0 0 0 0 0 0 0 0 0
Neighs:         0.00000 ave           0 max           0 min
Histogram: 1 0 0 0 0 0 0 0 0 0
FullNghs:      101240.0 ave      101240 max      101240 min
Histogram: 1 0 0 0 0 0 0 0 0 0

Total # of neighbors = 101240
Ave neighs/atom = 146.08947
Ave special neighs/atom = 0.0000000
Neighbor list builds = 0
Dangerous builds = 0
Displacing atoms ...
Displacing atoms ...
Setting up Verlet run ...
  Unit style    : metal
  Current step  : 39000
  Time step     : 0.0005
Per MPI rank memory allocation (min/avg/max) = 8.251 | 8.251 | 8.251 Mbytes
Step Temp E_pair E_mol TotEng Press 
   39000    476.19939   -4690.9003            0    -4679.082   -9197.0226 
   39500    491.14005   -4692.4432            0   -4680.2541   -9180.2602 
   40000     495.1585   -4693.4898            0    -4681.201   -9511.0333 
Loop time of 5.86164 on 1 procs for 1000 steps with 693 atoms

Performance: 7.370 ns/day, 3.256 hours/ns, 170.601 timesteps/s
99.7% CPU use with 1 MPI tasks x 1 OpenMP threads

MPI task timing breakdown:
Section |  min time  |  avg time  |  max time  |%varavg| %total
---------------------------------------------------------------
Pair    | 5.8428     | 5.8428     | 5.8428     |   0.0 | 99.68
Bond    | 7.7295e-05 | 7.7295e-05 | 7.7295e-05 |   0.0 |  0.00
Neigh   | 0          | 0          | 0          |   0.0 |  0.00
Comm    | 0.00012905 | 0.00012905 | 0.00012905 |   0.0 |  0.00
Output  | 0.00071902 | 0.00071902 | 0.00071902 |   0.0 |  0.01
Modify  | 0.015972   | 0.015972   | 0.015972   |   0.0 |  0.27
Other   |            | 0.001903   |            |       |  0.03

Nlocal:        693.000 ave         693 max         693 min
Histogram: 1 0 0 0 0 0 0 0 0 0
Nghost:         0.00000 ave           0 max           0 min
Histogram: 1 0 0 0 0 0 0 0 0 0
Neighs:         0.00000 ave           0 max           0 min
Histogram: 1 0 0 0 0 0 0 0 0 0
FullNghs:      100888.0 ave      100888 max      100888 min
Histogram: 1 0 0 0 0 0 0 0 0 0

Total # of neighbors = 100888
Ave neighs/atom = 145.58153
Ave special neighs/atom = 0.0000000
Neighbor list builds = 0
Dangerous builds = 0
Displacing atoms ...
Displacing atoms ...
Setting up Verlet run ...
  Unit style    : metal
  Current step  : 40000
  Time step     : 0.0005
Per MPI rank memory allocation (min/avg/max) = 8.251 | 8.251 | 8.251 Mbytes
Step Temp E_pair E_mol TotEng Press 
   40000     495.1585   -4679.1092            0   -4666.8204   -9865.8104 
   40500    486.26159   -4679.3633            0   -4667.2953   -9457.6681 
   41000    456.22493    -4680.121            0   -4668.7985   -9505.1693 
Loop time of 5.88458 on 1 procs for 1000 steps with 693 atoms

Performance: 7.341 ns/day, 3.269 hours/ns, 169.936 timesteps/s
99.7% CPU use with 1 MPI tasks x 1 OpenMP threads

MPI task timing breakdown:
Section |  min time  |  avg time  |  max time  |%varavg| %total
---------------------------------------------------------------
Pair    | 5.867      | 5.867      | 5.867      |   0.0 | 99.70
Bond    | 7.7743e-05 | 7.7743e-05 | 7.7743e-05 |   0.0 |  0.00
Neigh   | 0          | 0          | 0          |   0.0 |  0.00
Comm    | 0.0001277  | 0.0001277  | 0.0001277  |   0.0 |  0.00
Output  | 0.00070156 | 0.00070156 | 0.00070156 |   0.0 |  0.01
Modify  | 0.014759   | 0.014759   | 0.014759   |   0.0 |  0.25
Other   |            | 0.001906   |            |       |  0.03

Nlocal:        693.000 ave         693 max         693 min
Histogram: 1 0 0 0 0 0 0 0 0 0
Nghost:         0.00000 ave           0 max           0 min
Histogram: 1 0 0 0 0 0 0 0 0 0
Neighs:         0.00000 ave           0 max           0 min
Histogram: 1 0 0 0 0 0 0 0 0 0
FullNghs:      100268.0 ave      100268 max      100268 min
Histogram: 1 0 0 0 0 0 0 0 0 0

Total # of neighbors = 100268
Ave neighs/atom = 144.68687
Ave special neighs/atom = 0.0000000
Neighbor list builds = 0
Dangerous builds = 0
Displacing atoms ...
Displacing atoms ...
Setting up Verlet run ...
  Unit style    : metal
  Current step  : 41000
  Time step     : 0.0005
Per MPI rank memory allocation (min/avg/max) = 8.251 | 8.251 | 8.251 Mbytes
Step Temp E_pair E_mol TotEng Press 
   41000    456.22493   -4666.4346            0   -4655.1121   -9798.9112 
   41500    458.85451   -4667.4991            0   -4656.1113   -9600.5808 
   42000    457.41276   -4667.9074            0   -4656.5553   -9843.4532 
Loop time of 5.92774 on 1 procs for 1000 steps with 693 atoms

Performance: 7.288 ns/day, 3.293 hours/ns, 168.698 timesteps/s
99.7% CPU use with 1 MPI tasks x 1 OpenMP threads

MPI task timing breakdown:
Section |  min time  |  avg time  |  max time  |%varavg| %total
---------------------------------------------------------------
Pair    | 5.9102     | 5.9102     | 5.9102     |   0.0 | 99.70
Bond    | 7.7149e-05 | 7.7149e-05 | 7.7149e-05 |   0.0 |  0.00
Neigh   | 0          | 0          | 0          |   0.0 |  0.00
Comm    | 0.00013449 | 0.00013449 | 0.00013449 |   0.0 |  0.00
Output  | 0.00068526 | 0.00068526 | 0.00068526 |   0.0 |  0.01
Modify  | 0.01477    | 0.01477    | 0.01477    |   0.0 |  0.25
Other   |            | 0.00191    |            |       |  0.03

Nlocal:        693.000 ave         693 max         693 min
Histogram: 1 0 0 0 0 0 0 0 0 0
Nghost:         0.00000 ave           0 max           0 min
Histogram: 1 0 0 0 0 0 0 0 0 0
Neighs:         0.00000 ave           0 max           0 min
Histogram: 1 0 0 0 0 0 0 0 0 0
FullNghs:      100110.0 ave      100110 max      100110 min
Histogram: 1 0 0 0 0 0 0 0 0 0

Total # of neighbors = 100110
Ave neighs/atom = 144.45887
Ave special neighs/atom = 0.0000000
Neighbor list builds = 0
Dangerous builds = 0
Displacing atoms ...
Displacing atoms ...
Setting up Verlet run ...
  Unit style    : metal
  Current step  : 42000
  Time step     : 0.0005
Per MPI rank memory allocation (min/avg/max) = 8.251 | 8.251 | 8.251 Mbytes
Step Temp E_pair E_mol TotEng Press 
   42000    457.41276   -4653.3197            0   -4641.9677    -10218.34 
   42500    409.82793   -4654.7311            0     -4644.56   -10213.966 
   43000    441.40235   -4655.8717            0    -4644.917   -9886.2521 
Loop time of 5.97538 on 1 procs for 1000 steps with 693 atoms

Performance: 7.230 ns/day, 3.320 hours/ns, 167.353 timesteps/s
99.7% CPU use with 1 MPI tasks x 1 OpenMP threads

MPI task timing breakdown:
Section |  min time  |  avg time  |  max time  |%varavg| %total
---------------------------------------------------------------
Pair    | 5.9542     | 5.9542     | 5.9542     |   0.0 | 99.65
Bond    | 7.9404e-05 | 7.9404e-05 | 7.9404e-05 |   0.0 |  0.00
Neigh   | 0.0030383  | 0.0030383  | 0.0030383  |   0.0 |  0.05
Comm    | 0.0002271  | 0.0002271  | 0.0002271  |   0.0 |  0.00
Output  | 0.00068724 | 0.00068724 | 0.00068724 |   0.0 |  0.01
Modify  | 0.015246   | 0.015246   | 0.015246   |   0.0 |  0.26
Other   |            | 0.001883   |            |       |  0.03

Nlocal:        693.000 ave         693 max         693 min
Histogram: 1 0 0 0 0 0 0 0 0 0
Nghost:        1.00000 ave           1 max           1 min
Histogram: 1 0 0 0 0 0 0 0 0 0
Neighs:         0.00000 ave           0 max           0 min
Histogram: 1 0 0 0 0 0 0 0 0 0
FullNghs:      100498.0 ave      100498 max      100498 min
Histogram: 1 0 0 0 0 0 0 0 0 0

Total # of neighbors = 100498
Ave neighs/atom = 145.01876
Ave special neighs/atom = 0.0000000
Neighbor list builds = 2
Dangerous builds = 0
Displacing atoms ...
Displacing atoms ...
Setting up Verlet run ...
  Unit style    : metal
  Current step  : 43000
  Time step     : 0.0005
Per MPI rank memory allocation (min/avg/max) = 8.251 | 8.251 | 8.251 Mbytes
Step Temp E_pair E_mol TotEng Press 
   43000    441.40235   -4639.9798            0   -4629.0251   -10331.086 
   43500     432.4314     -4641.83            0    -4631.098   -9685.3985 
   44000    434.38684   -4643.2881            0   -4632.5075   -10217.608 
Loop time of 6.05718 on 1 procs for 1000 steps with 693 atoms

Performance: 7.132 ns/day, 3.365 hours/ns, 165.093 timesteps/s
99.7% CPU use with 1 MPI tasks x 1 OpenMP threads

MPI task timing breakdown:
Section |  min time  |  avg time  |  max time  |%varavg| %total
---------------------------------------------------------------
Pair    | 6.0388     | 6.0388     | 6.0388     |   0.0 | 99.70
Bond    | 7.9666e-05 | 7.9666e-05 | 7.9666e-05 |   0.0 |  0.00
Neigh   | 0          | 0          | 0          |   0.0 |  0.00
Comm    | 0.00020799 | 0.00020799 | 0.00020799 |   0.0 |  0.00
Output  | 0.00068803 | 0.00068803 | 0.00068803 |   0.0 |  0.01
Modify  | 0.015497   | 0.015497   | 0.015497   |   0.0 |  0.26
Other   |            | 0.001902   |            |       |  0.03

Nlocal:        693.000 ave         693 max         693 min
Histogram: 1 0 0 0 0 0 0 0 0 0
Nghost:        2.00000 ave           2 max           2 min
Histogram: 1 0 0 0 0 0 0 0 0 0
Neighs:         0.00000 ave           0 max           0 min
Histogram: 1 0 0 0 0 0 0 0 0 0
FullNghs:      99474.0 ave       99474 max       99474 min
Histogram: 1 0 0 0 0 0 0 0 0 0

Total # of neighbors = 99474
Ave neighs/atom = 143.54113
Ave special neighs/atom = 0.0000000
Neighbor list builds = 0
Dangerous builds = 0
Displacing atoms ...
Displacing atoms ...
Setting up Verlet run ...
  Unit style    : metal
  Current step  : 44000
  Time step     : 0.0005
Per MPI rank memory allocation (min/avg/max) = 8.251 | 8.251 | 8.251 Mbytes
Step Temp E_pair E_mol TotEng Press 
   44000    434.38684   -4627.4456            0    -4616.665   -10710.215 
   44500    470.24267   -4630.6663            0   -4618.9958    -10356.82 
   45000     433.9529   -4628.8464            0   -4618.0766   -10427.695 
Loop time of 6.11384 on 1 procs for 1000 steps with 693 atoms

Performance: 7.066 ns/day, 3.397 hours/ns, 163.563 timesteps/s
99.7% CPU use with 1 MPI tasks x 1 OpenMP threads

MPI task timing breakdown:
Section |  min time  |  avg time  |  max time  |%varavg| %total
---------------------------------------------------------------
Pair    | 6.0961     | 6.0961     | 6.0961     |   0.0 | 99.71
Bond    | 8.3995e-05 | 8.3995e-05 | 8.3995e-05 |   0.0 |  0.00
Neigh   | 0          | 0          | 0          |   0.0 |  0.00
Comm    | 0.00021212 | 0.00021212 | 0.00021212 |   0.0 |  0.00
Output  | 0.00071696 | 0.00071696 | 0.00071696 |   0.0 |  0.01
Modify  | 0.014809   | 0.014809   | 0.014809   |   0.0 |  0.24
Other   |            | 0.001919   |            |       |  0.03

Nlocal:        693.000 ave         693 max         693 min
Histogram: 1 0 0 0 0 0 0 0 0 0
Nghost:        3.00000 ave           3 max           3 min
Histogram: 1 0 0 0 0 0 0 0 0 0
Neighs:         0.00000 ave           0 max           0 min
Histogram: 1 0 0 0 0 0 0 0 0 0
FullNghs:      99518.0 ave       99518 max       99518 min
Histogram: 1 0 0 0 0 0 0 0 0 0

Total # of neighbors = 99518
Ave neighs/atom = 143.60462
Ave special neighs/atom = 0.0000000
Neighbor list builds = 0
Dangerous builds = 0
Displacing atoms ...
Displacing atoms ...
Setting up Verlet run ...
  Unit style    : metal
  Current step  : 45000
  Time step     : 0.0005
Per MPI rank memory allocation (min/avg/max) = 8.251 | 8.251 | 8.251 Mbytes
Step Temp E_pair E_mol TotEng Press 
   45000     433.9529   -4610.7745            0   -4600.0046    -11171.95 
   45500    500.65895   -4614.3362            0   -4601.9109   -10745.034 
   46000    454.77726   -4613.1005            0   -4601.8138   -10184.483 
Loop time of 6.18429 on 1 procs for 1000 steps with 693 atoms

Performance: 6.985 ns/day, 3.436 hours/ns, 161.700 timesteps/s
99.7% CPU use with 1 MPI tasks x 1 OpenMP threads

MPI task timing breakdown:
Section |  min time  |  avg time  |  max time  |%varavg| %total
---------------------------------------------------------------
Pair    | 6.1663     | 6.1663     | 6.1663     |   0.0 | 99.71
Bond    | 8.2437e-05 | 8.2437e-05 | 8.2437e-05 |   0.0 |  0.00
Neigh   | 0          | 0          | 0          |   0.0 |  0.00
Comm    | 0.00024071 | 0.00024071 | 0.00024071 |   0.0 |  0.00
Output  | 0.00068277 | 0.00068277 | 0.00068277 |   0.0 |  0.01
Modify  | 0.015094   | 0.015094   | 0.015094   |   0.0 |  0.24
Other   |            | 0.001904   |            |       |  0.03

Nlocal:        693.000 ave         693 max         693 min
Histogram: 1 0 0 0 0 0 0 0 0 0
Nghost:        7.00000 ave           7 max           7 min
Histogram: 1 0 0 0 0 0 0 0 0 0
Neighs:         0.00000 ave           0 max           0 min
Histogram: 1 0 0 0 0 0 0 0 0 0
FullNghs:      99282.0 ave       99282 max       99282 min
Histogram: 1 0 0 0 0 0 0 0 0 0

Total # of neighbors = 99282
Ave neighs/atom = 143.26407
Ave special neighs/atom = 0.0000000
Neighbor list builds = 0
Dangerous builds = 0
Displacing atoms ...
Displacing atoms ...
Setting up Verlet run ...
  Unit style    : metal
  Current step  : 46000
  Time step     : 0.0005
Per MPI rank memory allocation (min/avg/max) = 8.251 | 8.251 | 8.251 Mbytes
Step Temp E_pair E_mol TotEng Press 
   46000    454.77726   -4595.2217            0   -4583.9351   -10913.109 
   46500    511.58476   -4600.0942            0   -4587.3977   -10711.356 
   47000    421.24646   -4599.3877            0   -4588.9333   -10970.895 
Loop time of 6.27639 on 1 procs for 1000 steps with 693 atoms

Performance: 6.883 ns/day, 3.487 hours/ns, 159.327 timesteps/s
99.7% CPU use with 1 MPI tasks x 1 OpenMP threads

MPI task timing breakdown:
Section |  min time  |  avg time  |  max time  |%varavg| %total
---------------------------------------------------------------
Pair    | 6.2586     | 6.2586     | 6.2586     |   0.0 | 99.72
Bond    | 8.2001e-05 | 8.2001e-05 | 8.2001e-05 |   0.0 |  0.00
Neigh   | 0          | 0          | 0          |   0.0 |  0.00
Comm    | 0.00024423 | 0.00024423 | 0.00024423 |   0.0 |  0.00
Output  | 0.00072703 | 0.00072703 | 0.00072703 |   0.0 |  0.01
Modify  | 0.014873   | 0.014873   | 0.014873   |   0.0 |  0.24
Other   |            | 0.001906   |            |       |  0.03

Nlocal:        693.000 ave         693 max         693 min
Histogram: 1 0 0 0 0 0 0 0 0 0
Nghost:        7.00000 ave           7 max           7 min
Histogram: 1 0 0 0 0 0 0 0 0 0
Neighs:         0.00000 ave           0 max           0 min
Histogram: 1 0 0 0 0 0 0 0 0 0
FullNghs:      98952.0 ave       98952 max       98952 min
Histogram: 1 0 0 0 0 0 0 0 0 0

Total # of neighbors = 98952
Ave neighs/atom = 142.78788
Ave special neighs/atom = 0.0000000
Neighbor list builds = 0
Dangerous builds = 0
Displacing atoms ...
Displacing atoms ...
Setting up Verlet run ...
  Unit style    : metal
  Current step  : 47000
  Time step     : 0.0005
Per MPI rank memory allocation (min/avg/max) = 8.251 | 8.251 | 8.251 Mbytes
Step Temp E_pair E_mol TotEng Press 
   47000    421.24646   -4582.0489            0   -4571.5944   -11606.548 
   47500     445.0262   -4585.5219            0   -4574.4773   -11071.573 
   48000     467.0398   -4586.1388            0   -4574.5478   -10739.777 
Loop time of 6.35687 on 1 procs for 1000 steps with 693 atoms

Performance: 6.796 ns/day, 3.532 hours/ns, 157.310 timesteps/s
99.7% CPU use with 1 MPI tasks x 1 OpenMP threads

MPI task timing breakdown:
Section |  min time  |  avg time  |  max time  |%varavg| %total
---------------------------------------------------------------
Pair    | 6.3361     | 6.3361     | 6.3361     |   0.0 | 99.67
Bond    | 7.9491e-05 | 7.9491e-05 | 7.9491e-05 |   0.0 |  0.00
Neigh   | 0.0030266  | 0.0030266  | 0.0030266  |   0.0 |  0.05
Comm    | 0.00028687 | 0.00028687 | 0.00028687 |   0.0 |  0.00
Output  | 0.00070152 | 0.00070152 | 0.00070152 |   0.0 |  0.01
Modify  | 0.014804   | 0.014804   | 0.014804   |   0.0 |  0.23
Other   |            | 0.001889   |            |       |  0.03

Nlocal:        693.000 ave         693 max         693 min
Histogram: 1 0 0 0 0 0 0 0 0 0
Nghost:        9.00000 ave           9 max           9 min
Histogram: 1 0 0 0 0 0 0 0 0 0
Neighs:         0.00000 ave           0 max           0 min
Histogram: 1 0 0 0 0 0 0 0 0 0
FullNghs:      98436.0 ave       98436 max       98436 min
Histogram: 1 0 0 0 0 0 0 0 0 0

Total # of neighbors = 98436
Ave neighs/atom = 142.04329
Ave special neighs/atom = 0.0000000
Neighbor list builds = 2
Dangerous builds = 0
Displacing atoms ...
Displacing atoms ...
Setting up Verlet run ...
  Unit style    : metal
  Current step  : 48000
  Time step     : 0.0005
Per MPI rank memory allocation (min/avg/max) = 8.251 | 8.251 | 8.251 Mbytes
Step Temp E_pair E_mol TotEng Press 
[...]
Modify  | 0.014607   | 0.014607   | 0.014607   |   0.0 |  0.26
Other   |            | 0.001919   |            |       |  0.03

Nlocal:        693.000 ave         693 max         693 min
Histogram: 1 0 0 0 0 0 0 0 0 0
Nghost:        66.0000 ave          66 max          66 min
Histogram: 1 0 0 0 0 0 0 0 0 0
Neighs:         0.00000 ave           0 max           0 min
Histogram: 1 0 0 0 0 0 0 0 0 0
FullNghs:      100350.0 ave      100350 max      100350 min
Histogram: 1 0 0 0 0 0 0 0 0 0

Total # of neighbors = 100350
Ave neighs/atom = 144.80519
Ave special neighs/atom = 0.0000000
Neighbor list builds = 1
Dangerous builds = 0
Displacing atoms ...
Displacing atoms ...
Setting up Verlet run ...
  Unit style    : metal
  Current step  : 94000
  Time step     : 0.0005
Per MPI rank memory allocation (min/avg/max) = 8.252 | 8.252 | 8.252 Mbytes
Step Temp E_pair E_mol TotEng Press 
   94000    480.44721   -4823.2161            0   -4811.2924   -3611.6643 
   94500    468.44769   -4825.3162            0   -4813.6903   -3687.8007 
   95000     485.6552   -4826.0264            0   -4813.9735   -3269.0881 
Loop time of 5.53192 on 1 procs for 1000 steps with 693 atoms

Performance: 7.809 ns/day, 3.073 hours/ns, 180.769 timesteps/s
99.7% CPU use with 1 MPI tasks x 1 OpenMP threads

MPI task timing breakdown:
Section |  min time  |  avg time  |  max time  |%varavg| %total
---------------------------------------------------------------
Pair    | 5.5141     | 5.5141     | 5.5141     |   0.0 | 99.68
Bond    | 7.3373e-05 | 7.3373e-05 | 7.3373e-05 |   0.0 |  0.00
Neigh   | 0          | 0          | 0          |   0.0 |  0.00
Comm    | 0.00048707 | 0.00048707 | 0.00048707 |   0.0 |  0.01
Output  | 0.00070898 | 0.00070898 | 0.00070898 |   0.0 |  0.01
Modify  | 0.014588   | 0.014588   | 0.014588   |   0.0 |  0.26
Other   |            | 0.001924   |            |       |  0.03

Nlocal:        693.000 ave         693 max         693 min
Histogram: 1 0 0 0 0 0 0 0 0 0
Nghost:        70.0000 ave          70 max          70 min
Histogram: 1 0 0 0 0 0 0 0 0 0
Neighs:         0.00000 ave           0 max           0 min
Histogram: 1 0 0 0 0 0 0 0 0 0
FullNghs:      99994.0 ave       99994 max       99994 min
Histogram: 1 0 0 0 0 0 0 0 0 0

Total # of neighbors = 99994
Ave neighs/atom = 144.29149
Ave special neighs/atom = 0.0000000
Neighbor list builds = 0
Dangerous builds = 0
Displacing atoms ...
Displacing atoms ...
Setting up Verlet run ...
  Unit style    : metal
  Current step  : 95000
  Time step     : 0.0005
Per MPI rank memory allocation (min/avg/max) = 8.252 | 8.252 | 8.252 Mbytes
Step Temp E_pair E_mol TotEng Press 
   95000     485.6552   -4818.2764            0   -4806.2234   -3603.4628 
   95500    487.14881   -4821.0928            0   -4809.0028   -3754.4763 
   96000    483.49958   -4822.5224            0    -4810.523   -3330.2404 
Loop time of 5.5609 on 1 procs for 1000 steps with 693 atoms

Performance: 7.769 ns/day, 3.089 hours/ns, 179.827 timesteps/s
99.7% CPU use with 1 MPI tasks x 1 OpenMP threads

MPI task timing breakdown:
Section |  min time  |  avg time  |  max time  |%varavg| %total
---------------------------------------------------------------
Pair    | 5.5431     | 5.5431     | 5.5431     |   0.0 | 99.68
Bond    | 7.474e-05  | 7.474e-05  | 7.474e-05  |   0.0 |  0.00
Neigh   | 0          | 0          | 0          |   0.0 |  0.00
Comm    | 0.00047817 | 0.00047817 | 0.00047817 |   0.0 |  0.01
Output  | 0.00069277 | 0.00069277 | 0.00069277 |   0.0 |  0.01
Modify  | 0.014614   | 0.014614   | 0.014614   |   0.0 |  0.26
Other   |            | 0.00192    |            |       |  0.03

Nlocal:        693.000 ave         693 max         693 min
Histogram: 1 0 0 0 0 0 0 0 0 0
Nghost:        70.0000 ave          70 max          70 min
Histogram: 1 0 0 0 0 0 0 0 0 0
Neighs:         0.00000 ave           0 max           0 min
Histogram: 1 0 0 0 0 0 0 0 0 0
FullNghs:      100026.0 ave      100026 max      100026 min
Histogram: 1 0 0 0 0 0 0 0 0 0

Total # of neighbors = 100026
Ave neighs/atom = 144.33766
Ave special neighs/atom = 0.0000000
Neighbor list builds = 0
Dangerous builds = 0
Displacing atoms ...
Displacing atoms ...
Setting up Verlet run ...
  Unit style    : metal
  Current step  : 96000
  Time step     : 0.0005
Per MPI rank memory allocation (min/avg/max) = 8.252 | 8.252 | 8.252 Mbytes
Step Temp E_pair E_mol TotEng Press 
   96000    483.49958   -4815.8188            0   -4803.8194   -3701.1575 
   96500    470.23863   -4818.5669            0   -4806.8965   -4029.5414 
   97000    476.96078   -4818.2592            0    -4806.422   -3940.4154 
Loop time of 5.58002 on 1 procs for 1000 steps with 693 atoms

Performance: 7.742 ns/day, 3.100 hours/ns, 179.211 timesteps/s
99.7% CPU use with 1 MPI tasks x 1 OpenMP threads

MPI task timing breakdown:
Section |  min time  |  avg time  |  max time  |%varavg| %total
---------------------------------------------------------------
Pair    | 5.5592     | 5.5592     | 5.5592     |   0.0 | 99.63
Bond    | 7.3648e-05 | 7.3648e-05 | 7.3648e-05 |   0.0 |  0.00
Neigh   | 0.0029862  | 0.0029862  | 0.0029862  |   0.0 |  0.05
Comm    | 0.00049294 | 0.00049294 | 0.00049294 |   0.0 |  0.01
Output  | 0.00068467 | 0.00068467 | 0.00068467 |   0.0 |  0.01
Modify  | 0.014667   | 0.014667   | 0.014667   |   0.0 |  0.26
Other   |            | 0.001902   |            |       |  0.03

Nlocal:        693.000 ave         693 max         693 min
Histogram: 1 0 0 0 0 0 0 0 0 0
Nghost:        70.0000 ave          70 max          70 min
Histogram: 1 0 0 0 0 0 0 0 0 0
Neighs:         0.00000 ave           0 max           0 min
Histogram: 1 0 0 0 0 0 0 0 0 0
FullNghs:      100094.0 ave      100094 max      100094 min
Histogram: 1 0 0 0 0 0 0 0 0 0

Total # of neighbors = 100094
Ave neighs/atom = 144.43579
Ave special neighs/atom = 0.0000000
Neighbor list builds = 2
Dangerous builds = 0
Displacing atoms ...
Displacing atoms ...
Setting up Verlet run ...
  Unit style    : metal
  Current step  : 97000
  Time step     : 0.0005
Per MPI rank memory allocation (min/avg/max) = 8.252 | 8.252 | 8.252 Mbytes
Step Temp E_pair E_mol TotEng Press 
   97000    476.96078   -4810.2094            0   -4798.3722   -4269.4048 
   97500    573.02076   -4815.0211            0   -4800.7999   -4092.0925 
   98000    503.55267   -4813.8562            0   -4801.3591   -3852.9854 
Loop time of 5.59278 on 1 procs for 1000 steps with 693 atoms

Performance: 7.724 ns/day, 3.107 hours/ns, 178.802 timesteps/s
99.7% CPU use with 1 MPI tasks x 1 OpenMP threads

MPI task timing breakdown:
Section |  min time  |  avg time  |  max time  |%varavg| %total
---------------------------------------------------------------
Pair    | 5.5734     | 5.5734     | 5.5734     |   0.0 | 99.65
Bond    | 7.4268e-05 | 7.4268e-05 | 7.4268e-05 |   0.0 |  0.00
Neigh   | 0.0015095  | 0.0015095  | 0.0015095  |   0.0 |  0.03
Comm    | 0.0004857  | 0.0004857  | 0.0004857  |   0.0 |  0.01
Output  | 0.00070846 | 0.00070846 | 0.00070846 |   0.0 |  0.01
Modify  | 0.014677   | 0.014677   | 0.014677   |   0.0 |  0.26
Other   |            | 0.001911   |            |       |  0.03

Nlocal:        693.000 ave         693 max         693 min
Histogram: 1 0 0 0 0 0 0 0 0 0
Nghost:        70.0000 ave          70 max          70 min
Histogram: 1 0 0 0 0 0 0 0 0 0
Neighs:         0.00000 ave           0 max           0 min
Histogram: 1 0 0 0 0 0 0 0 0 0
FullNghs:      99808.0 ave       99808 max       99808 min
Histogram: 1 0 0 0 0 0 0 0 0 0

Total # of neighbors = 99808
Ave neighs/atom = 144.02309
Ave special neighs/atom = 0.0000000
Neighbor list builds = 1
Dangerous builds = 0
Displacing atoms ...
Displacing atoms ...
Setting up Verlet run ...
  Unit style    : metal
  Current step  : 98000
  Time step     : 0.0005
Per MPI rank memory allocation (min/avg/max) = 8.252 | 8.252 | 8.252 Mbytes
Step Temp E_pair E_mol TotEng Press 
   98000    503.55267   -4806.5507            0   -4794.0535     -4208.31 
   98500    560.85812   -4811.6343            0   -4797.7149   -3977.5437 
   99000    877.68054   -4820.3229            0   -4798.5407   -3531.6134 
Loop time of 5.58658 on 1 procs for 1000 steps with 693 atoms

Performance: 7.733 ns/day, 3.104 hours/ns, 179.000 timesteps/s
99.7% CPU use with 1 MPI tasks x 1 OpenMP threads

MPI task timing breakdown:
Section |  min time  |  avg time  |  max time  |%varavg| %total
---------------------------------------------------------------
Pair    | 5.5641     | 5.5641     | 5.5641     |   0.0 | 99.60
Bond    | 7.4071e-05 | 7.4071e-05 | 7.4071e-05 |   0.0 |  0.00
Neigh   | 0.0045176  | 0.0045176  | 0.0045176  |   0.0 |  0.08
Comm    | 0.00050563 | 0.00050563 | 0.00050563 |   0.0 |  0.01
Output  | 0.00070437 | 0.00070437 | 0.00070437 |   0.0 |  0.01
Modify  | 0.014807   | 0.014807   | 0.014807   |   0.0 |  0.27
Other   |            | 0.001894   |            |       |  0.03

Nlocal:        693.000 ave         693 max         693 min
Histogram: 1 0 0 0 0 0 0 0 0 0
Nghost:        72.0000 ave          72 max          72 min
Histogram: 1 0 0 0 0 0 0 0 0 0
Neighs:         0.00000 ave           0 max           0 min
Histogram: 1 0 0 0 0 0 0 0 0 0
FullNghs:      100212.0 ave      100212 max      100212 min
Histogram: 1 0 0 0 0 0 0 0 0 0

Total # of neighbors = 100212
Ave neighs/atom = 144.60606
Ave special neighs/atom = 0.0000000
Neighbor list builds = 3
Dangerous builds = 0
Displacing atoms ...
Displacing atoms ...
Setting up Verlet run ...
  Unit style    : metal
  Current step  : 99000
  Time step     : 0.0005
Per MPI rank memory allocation (min/avg/max) = 8.252 | 8.252 | 8.252 Mbytes
Step Temp E_pair E_mol TotEng Press 
   99000    877.68054   -4812.2733            0   -4790.4911   -3856.6356 
   99500    994.65559   -4820.8751            0   -4796.1898   -3349.4651 
  100000    839.18634   -4821.4093            0   -4800.5825   -3283.8265 
Loop time of 5.51587 on 1 procs for 1000 steps with 693 atoms

Performance: 7.832 ns/day, 3.064 hours/ns, 181.295 timesteps/s
99.7% CPU use with 1 MPI tasks x 1 OpenMP threads

MPI task timing breakdown:
Section |  min time  |  avg time  |  max time  |%varavg| %total
---------------------------------------------------------------
Pair    | 5.4844     | 5.4844     | 5.4844     |   0.0 | 99.43
Bond    | 7.3215e-05 | 7.3215e-05 | 7.3215e-05 |   0.0 |  0.00
Neigh   | 0.013597   | 0.013597   | 0.013597   |   0.0 |  0.25
Comm    | 0.00056721 | 0.00056721 | 0.00056721 |   0.0 |  0.01
Output  | 0.0006848  | 0.0006848  | 0.0006848  |   0.0 |  0.01
Modify  | 0.014758   | 0.014758   | 0.014758   |   0.0 |  0.27
Other   |            | 0.00183    |            |       |  0.03

Nlocal:        693.000 ave         693 max         693 min
Histogram: 1 0 0 0 0 0 0 0 0 0
Nghost:        73.0000 ave          73 max          73 min
Histogram: 1 0 0 0 0 0 0 0 0 0
Neighs:         0.00000 ave           0 max           0 min
Histogram: 1 0 0 0 0 0 0 0 0 0
FullNghs:      100554.0 ave      100554 max      100554 min
Histogram: 1 0 0 0 0 0 0 0 0 0

Total # of neighbors = 100554
Ave neighs/atom = 145.09957
Ave special neighs/atom = 0.0000000
Neighbor list builds = 9
Dangerous builds = 0
Displacing atoms ...
Displacing atoms ...
Setting up Verlet run ...
  Unit style    : metal
  Current step  : 100000
  Time step     : 0.0005
Per MPI rank memory allocation (min/avg/max) = 8.252 | 8.252 | 8.252 Mbytes
Step Temp E_pair E_mol TotEng Press 
  100000    839.18634   -4815.3384            0   -4794.5116   -3668.2158 
  100500    788.32785   -4822.6641            0   -4803.0994   -3093.3696 
  101000     681.6891   -4823.8802            0    -4806.962   -2967.0605 
Loop time of 5.43918 on 1 procs for 1000 steps with 693 atoms

Performance: 7.942 ns/day, 3.022 hours/ns, 183.851 timesteps/s
99.7% CPU use with 1 MPI tasks x 1 OpenMP threads

MPI task timing breakdown:
Section |  min time  |  avg time  |  max time  |%varavg| %total
---------------------------------------------------------------
Pair    | 5.4166     | 5.4166     | 5.4166     |   0.0 | 99.58
Bond    | 7.6544e-05 | 7.6544e-05 | 7.6544e-05 |   0.0 |  0.00
Neigh   | 0.0045382  | 0.0045382  | 0.0045382  |   0.0 |  0.08
Comm    | 0.00052441 | 0.00052441 | 0.00052441 |   0.0 |  0.01
Output  | 0.00072135 | 0.00072135 | 0.00072135 |   0.0 |  0.01
Modify  | 0.014814   | 0.014814   | 0.014814   |   0.0 |  0.27
Other   |            | 0.0019     |            |       |  0.03

Nlocal:        693.000 ave         693 max         693 min
Histogram: 1 0 0 0 0 0 0 0 0 0
Nghost:        75.0000 ave          75 max          75 min
Histogram: 1 0 0 0 0 0 0 0 0 0
Neighs:         0.00000 ave           0 max           0 min
Histogram: 1 0 0 0 0 0 0 0 0 0
FullNghs:      100068.0 ave      100068 max      100068 min
Histogram: 1 0 0 0 0 0 0 0 0 0

Total # of neighbors = 100068
Ave neighs/atom = 144.39827
Ave special neighs/atom = 0.0000000
Neighbor list builds = 3
Dangerous builds = 0
Displacing atoms ...
Displacing atoms ...
Setting up Verlet run ...
  Unit style    : metal
  Current step  : 101000
  Time step     : 0.0005
Per MPI rank memory allocation (min/avg/max) = 8.252 | 8.252 | 8.252 Mbytes
Step Temp E_pair E_mol TotEng Press 
  101000     681.6891   -4816.5269            0   -4799.6088   -3318.3522 
  101500     661.5171   -4821.3907            0   -4804.9732    -3439.692 
  102000    652.08583   -4824.4825            0   -4808.2991   -2830.2104 
Loop time of 5.46542 on 1 procs for 1000 steps with 693 atoms

Performance: 7.904 ns/day, 3.036 hours/ns, 182.968 timesteps/s
99.7% CPU use with 1 MPI tasks x 1 OpenMP threads

MPI task timing breakdown:
Section |  min time  |  avg time  |  max time  |%varavg| %total
---------------------------------------------------------------
Pair    | 5.4429     | 5.4429     | 5.4429     |   0.0 | 99.59
Bond    | 7.5117e-05 | 7.5117e-05 | 7.5117e-05 |   0.0 |  0.00
Neigh   | 0.0045549  | 0.0045549  | 0.0045549  |   0.0 |  0.08
Comm    | 0.00053388 | 0.00053388 | 0.00053388 |   0.0 |  0.01
Output  | 0.00068048 | 0.00068048 | 0.00068048 |   0.0 |  0.01
Modify  | 0.014811   | 0.014811   | 0.014811   |   0.0 |  0.27
Other   |            | 0.001912   |            |       |  0.03

Nlocal:        693.000 ave         693 max         693 min
Histogram: 1 0 0 0 0 0 0 0 0 0
Nghost:        77.0000 ave          77 max          77 min
Histogram: 1 0 0 0 0 0 0 0 0 0
Neighs:         0.00000 ave           0 max           0 min
Histogram: 1 0 0 0 0 0 0 0 0 0
FullNghs:      100526.0 ave      100526 max      100526 min
Histogram: 1 0 0 0 0 0 0 0 0 0

Total # of neighbors = 100526
Ave neighs/atom = 145.05916
Ave special neighs/atom = 0.0000000
Neighbor list builds = 3
Dangerous builds = 0
Displacing atoms ...
Displacing atoms ...
Setting up Verlet run ...
  Unit style    : metal
  Current step  : 102000
  Time step     : 0.0005
Per MPI rank memory allocation (min/avg/max) = 8.252 | 8.252 | 8.252 Mbytes
Step Temp E_pair E_mol TotEng Press 
  102000    652.08583   -4817.0114            0   -4800.8279     -3172.23 
  102500    600.87221   -4818.4187            0   -4803.5063   -2999.0734 
  103000    617.80384   -4820.8784            0   -4805.5458   -3146.4488 
Loop time of 5.46338 on 1 procs for 1000 steps with 693 atoms

Performance: 7.907 ns/day, 3.035 hours/ns, 183.037 timesteps/s
99.7% CPU use with 1 MPI tasks x 1 OpenMP threads

MPI task timing breakdown:
Section |  min time  |  avg time  |  max time  |%varavg| %total
---------------------------------------------------------------
Pair    | 5.4438     | 5.4438     | 5.4438     |   0.0 | 99.64
Bond    | 7.4053e-05 | 7.4053e-05 | 7.4053e-05 |   0.0 |  0.00
Neigh   | 0.0015238  | 0.0015238  | 0.0015238  |   0.0 |  0.03
Comm    | 0.00051314 | 0.00051314 | 0.00051314 |   0.0 |  0.01
Output  | 0.0007052  | 0.0007052  | 0.0007052  |   0.0 |  0.01
Modify  | 0.014876   | 0.014876   | 0.014876   |   0.0 |  0.27
Other   |            | 0.001916   |            |       |  0.04

Nlocal:        693.000 ave         693 max         693 min
Histogram: 1 0 0 0 0 0 0 0 0 0
Nghost:        79.0000 ave          79 max          79 min
Histogram: 1 0 0 0 0 0 0 0 0 0
Neighs:         0.00000 ave           0 max           0 min
Histogram: 1 0 0 0 0 0 0 0 0 0
FullNghs:      100520.0 ave      100520 max      100520 min
Histogram: 1 0 0 0 0 0 0 0 0 0

Total # of neighbors = 100520
Ave neighs/atom = 145.05051
Ave special neighs/atom = 0.0000000
Neighbor list builds = 1
Dangerous builds = 0
Displacing atoms ...
Displacing atoms ...
Setting up Verlet run ...
  Unit style    : metal
  Current step  : 103000
  Time step     : 0.0005
Per MPI rank memory allocation (min/avg/max) = 8.252 | 8.252 | 8.252 Mbytes
Step Temp E_pair E_mol TotEng Press 
  103000    617.80384   -4812.9804            0   -4797.6478   -3475.5304 
  103500    549.57005   -4817.4249            0   -4803.7857   -3356.3154 
  104000    584.19398    -4821.553            0   -4807.0545   -3421.2932 
Loop time of 5.51554 on 1 procs for 1000 steps with 693 atoms

Performance: 7.832 ns/day, 3.064 hours/ns, 181.306 timesteps/s
99.7% CPU use with 1 MPI tasks x 1 OpenMP threads

MPI task timing breakdown:
Section |  min time  |  avg time  |  max time  |%varavg| %total
---------------------------------------------------------------
Pair    | 5.4927     | 5.4927     | 5.4927     |   0.0 | 99.59
Bond    | 7.3837e-05 | 7.3837e-05 | 7.3837e-05 |   0.0 |  0.00
Neigh   | 0.0045725  | 0.0045725  | 0.0045725  |   0.0 |  0.08
Comm    | 0.00053181 | 0.00053181 | 0.00053181 |   0.0 |  0.01
Output  | 0.00071916 | 0.00071916 | 0.00071916 |   0.0 |  0.01
Modify  | 0.014999   | 0.014999   | 0.014999   |   0.0 |  0.27
Other   |            | 0.001901   |            |       |  0.03

Nlocal:        693.000 ave         693 max         693 min
Histogram: 1 0 0 0 0 0 0 0 0 0
Nghost:        80.0000 ave          80 max          80 min
Histogram: 1 0 0 0 0 0 0 0 0 0
Neighs:         0.00000 ave           0 max           0 min
Histogram: 1 0 0 0 0 0 0 0 0 0
FullNghs:      99550.0 ave       99550 max       99550 min
Histogram: 1 0 0 0 0 0 0 0 0 0

Total # of neighbors = 99550
Ave neighs/atom = 143.65079
Ave special neighs/atom = 0.0000000
Neighbor list builds = 3
Dangerous builds = 0
Displacing atoms ...
Displacing atoms ...
Setting up Verlet run ...
  Unit style    : metal
  Current step  : 104000
  Time step     : 0.0005
Per MPI rank memory allocation (min/avg/max) = 8.252 | 8.252 | 8.252 Mbytes
Step Temp E_pair E_mol TotEng Press 
  104000    584.19398   -4814.1508            0   -4799.6523   -3766.5082 
  104500    624.98058   -4817.8473            0   -4802.3365   -3691.6074 
  105000    560.62702    -4818.576            0   -4804.6624   -3278.1993 
Loop time of 5.55114 on 1 procs for 1000 steps with 693 atoms

Performance: 7.782 ns/day, 3.084 hours/ns, 180.143 timesteps/s
99.7% CPU use with 1 MPI tasks x 1 OpenMP threads

MPI task timing breakdown:
Section |  min time  |  avg time  |  max time  |%varavg| %total
---------------------------------------------------------------
Pair    | 5.5283     | 5.5283     | 5.5283     |   0.0 | 99.59
Bond    | 8.0116e-05 | 8.0116e-05 | 8.0116e-05 |   0.0 |  0.00
Neigh   | 0.0045892  | 0.0045892  | 0.0045892  |   0.0 |  0.08
Comm    | 0.00053596 | 0.00053596 | 0.00053596 |   0.0 |  0.01
Output  | 0.0006976  | 0.0006976  | 0.0006976  |   0.0 |  0.01
Modify  | 0.015076   | 0.015076   | 0.015076   |   0.0 |  0.27
Other   |            | 0.001896   |            |       |  0.03

Nlocal:        693.000 ave         693 max         693 min
Histogram: 1 0 0 0 0 0 0 0 0 0
Nghost:        80.0000 ave          80 max          80 min
Histogram: 1 0 0 0 0 0 0 0 0 0
Neighs:         0.00000 ave           0 max           0 min
Histogram: 1 0 0 0 0 0 0 0 0 0
FullNghs:      100156.0 ave      100156 max      100156 min
Histogram: 1 0 0 0 0 0 0 0 0 0

Total # of neighbors = 100156
Ave neighs/atom = 144.52525
Ave special neighs/atom = 0.0000000
Neighbor list builds = 3
Dangerous builds = 0
Total wall time: 0:09:46
