ITEM: TIMESTEP
0
ITEM: NUMBER OF ATOMS
693
ITEM: BOX BOUNDS pp pp pp
-2.0000000000000000e+01 2.0000000000000000e+01
-2.0000000000000000e+01 2.0000000000000000e+01
-3.0000000000000000e+01 7.0000000000000000e+01
ITEM: ATOMS id type xs ys zs
105 3 0.395168 0.423835 0.3
106 3 0.419208 0.39869 0.30268
119 3 0.482606 0.371593 0.308039
120 3 0.517394 0.371593 0.310719
129 3 0.540042 0.376762 0.3
130 3 0.571385 0.391856 0.30268
78 3 0.378683 0.545531 0.30268
91 3 0.372503 0.476863 0.308039
92 3 0.383253 0.443777 0.310719
21 3 0.62958 0.5 0.3
22 3 0.62491 0.534473 0.30268
137 3 0.616747 0.443777 0.308039
138 3 0.627497 0.476863 0.310719
64 3 0.410452 0.59366 0.310719
77 3 0.395168 0.576165 0.3
36 3 0.561404 0.614107 0.310719
49 3 0.540042 0.623238 0.3
50 3 0.505814 0.629449 0.30268
63 3 0.438596 0.614107 0.308039
35 3 0.589548 0.59366 0.308039
84 3 0.402417 0.414744 0.350916
85 3 0.410452 0.40634 0.364314
94 3 0.410452 0.40634 0.326798
95 3 0.419208 0.39869 0.340197
86 3 0.438596 0.385893 0.366994
96 3 0.449072 0.380848 0.342876
97 3 0.459958 0.376762 0.356275
98 3 0.494186 0.370551 0.358955
107 3 0.428615 0.391856 0.316079
108 3 0.459958 0.376762 0.318758
109 3 0.471166 0.373669 0.332157
110 3 0.505814 0.370551 0.334837
111 3 0.517394 0.371593 0.348236
112 3 0.550928 0.380848 0.350916
113 3 0.561404 0.385893 0.364314
121 3 0.528834 0.373669 0.324118
122 3 0.561404 0.385893 0.326798
123 3 0.571385 0.391856 0.340197
114 3 0.589548 0.40634 0.366994
124 3 0.597583 0.414744 0.342876
125 3 0.604832 0.423835 0.356275
131 3 0.580792 0.39869 0.316079
132 3 0.604832 0.423835 0.318758
56 3 0.388762 0.566461 0.350916
57 3 0.383253 0.556223 0.364314
58 3 0.372503 0.523137 0.366994
66 3 0.383253 0.556223 0.326798
67 3 0.378683 0.545531 0.340197
68 3 0.370942 0.511615 0.342876
69 3 0.37042 0.5 0.356275
70 3 0.37509 0.465527 0.358955
79 3 0.37509 0.534473 0.316079
80 3 0.37042 0.5 0.318758
81 3 0.370942 0.488385 0.332157
82 3 0.378683 0.454469 0.334837
83 3 0.383253 0.443777 0.348236
93 3 0.388762 0.433539 0.324118
5 3 0.627497 0.523137 0.364314
6 3 0.616747 0.556223 0.366994
11 3 0.62491 0.534473 0.340197
12 3 0.611238 0.566461 0.342876
23 3 0.621317 0.545531 0.316079
126 3 0.621317 0.454469 0.358955
133 3 0.611238 0.433539 0.332157
134 3 0.62491 0.465527 0.334837
135 3 0.627497 0.476863 0.348236
136 3 0.629058 0.511615 0.350916
139 3 0.629058 0.488385 0.324118
140 3 0.627497 0.523137 0.326798
54 3 0.419208 0.60131 0.334837
55 3 0.410452 0.59366 0.348236
65 3 0.402417 0.585256 0.324118
26 3 0.571385 0.608144 0.334837
27 3 0.561404 0.614107 0.348236
28 3 0.528834 0.626331 0.350916
29 3 0.517394 0.628407 0.364314
30 3 0.482606 0.628407 0.366994
37 3 0.550928 0.619152 0.324118
38 3 0.517394 0.628407 0.326798
39 3 0.505814 0.629449 0.340197
40 3 0.471166 0.626331 0.342876
41 3 0.459958 0.623238 0.356275
42 3 0.428615 0.608144 0.358955
51 3 0.494186 0.629449 0.316079
52 3 0.459958 0.623238 0.318758
53 3 0.449072 0.619152 0.332157
13 3 0.604832 0.576165 0.356275
14 3 0.580792 0.60131 0.358955
24 3 0.604832 0.576165 0.318758
25 3 0.597583 0.585256 0.332157
72 3 0.395168 0.423835 0.375034
73 3 0.402417 0.414744 0.388432
245 1 0.395168 0.423835 0.41255
246 1 0.419208 0.39869 0.41523
74 3 0.428615 0.391856 0.391112
75 1 0.438596 0.385893 0.404511
76 1 0.471166 0.373669 0.407191
87 3 0.449072 0.380848 0.380393
88 3 0.482606 0.371593 0.383073
89 3 0.494186 0.370551 0.396472
90 3 0.528834 0.373669 0.399151
99 3 0.505814 0.370551 0.372354
100 3 0.540042 0.376762 0.375034
101 3 0.550928 0.380848 0.388432
259 1 0.482606 0.371593 0.42059
269 1 0.540042 0.376762 0.41255
270 1 0.571385 0.391856 0.41523
102 3 0.580792 0.39869 0.391112
103 1 0.589548 0.40634 0.404511
115 3 0.597583 0.414744 0.380393
45 3 0.388762 0.566461 0.388432
46 3 0.37509 0.534473 0.391112
47 1 0.372503 0.523137 0.404511
48 1 0.370942 0.488385 0.407191
59 3 0.370942 0.511615 0.380393
60 3 0.372503 0.476863 0.383073
61 3 0.37509 0.465527 0.396472
62 3 0.388762 0.433539 0.399151
71 3 0.378683 0.454469 0.372354
218 1 0.378683 0.545531 0.41523
231 1 0.372503 0.476863 0.42059
1 3 0.629058 0.511615 0.388432
2 3 0.621317 0.545531 0.391112
3 1 0.616747 0.556223 0.404511
7 3 0.611238 0.566461 0.380393
104 1 0.611238 0.433539 0.407191
116 3 0.616747 0.443777 0.383073
117 3 0.621317 0.454469 0.396472
118 3 0.629058 0.488385 0.399151
127 3 0.62491 0.465527 0.372354
128 3 0.62958 0.5 0.375034
161 1 0.62958 0.5 0.41255
162 1 0.62491 0.534473 0.41523
277 1 0.616747 0.443777 0.42059
34 3 0.402417 0.585256 0.399151
43 3 0.419208 0.60131 0.372354
44 3 0.395168 0.576165 0.375034
217 1 0.395168 0.576165 0.41255
10 3 0.550928 0.619152 0.399151
15 3 0.571385 0.608144 0.372354
16 3 0.540042 0.623238 0.375034
17 3 0.528834 0.626331 0.388432
18 3 0.494186 0.629449 0.391112
19 1 0.482606 0.628407 0.404511
20 1 0.449072 0.619152 0.407191
31 3 0.471166 0.626331 0.380393
32 3 0.438596 0.614107 0.383073
33 3 0.428615 0.608144 0.396472
189 1 0.540042 0.623238 0.41255
190 1 0.505814 0.629449 0.41523
203 1 0.438596 0.614107 0.42059
4 1 0.597583 0.585256 0.407191
8 3 0.589548 0.59366 0.383073
9 3 0.580792 0.60131 0.396472
175 1 0.589548 0.59366 0.42059
224 1 0.402417 0.414744 0.463466
234 1 0.410452 0.40634 0.439348
235 1 0.419208 0.39869 0.452747
236 1 0.449072 0.380848 0.455427
237 1 0.459958 0.376762 0.468825
238 1 0.494186 0.370551 0.471505
247 1 0.428615 0.391856 0.428629
248 1 0.459958 0.376762 0.431309
249 1 0.471166 0.373669 0.444707
250 1 0.505814 0.370551 0.447387
251 1 0.517394 0.371593 0.460786
252 1 0.550928 0.380848 0.463466
260 1 0.517394 0.371593 0.423269
261 1 0.528834 0.373669 0.436668
262 1 0.561404 0.385893 0.439348
263 1 0.571385 0.391856 0.452747
264 1 0.597583 0.414744 0.455427
265 1 0.604832 0.423835 0.468825
271 1 0.580792 0.39869 0.428629
272 1 0.604832 0.423835 0.431309
196 1 0.388762 0.566461 0.463466
206 1 0.383253 0.556223 0.439348
207 1 0.378683 0.545531 0.452747
208 1 0.370942 0.511615 0.455427
209 1 0.37042 0.5 0.468825
210 1 0.37509 0.465527 0.471505
219 1 0.37509 0.534473 0.428629
220 1 0.37042 0.5 0.431309
221 1 0.370942 0.488385 0.444707
222 1 0.378683 0.454469 0.447387
223 1 0.383253 0.443777 0.460786
232 1 0.383253 0.443777 0.423269
233 1 0.388762 0.433539 0.436668
151 1 0.62491 0.534473 0.452747
152 1 0.611238 0.566461 0.455427
163 1 0.621317 0.545531 0.428629
266 1 0.621317 0.454469 0.471505
273 1 0.611238 0.433539 0.444707
274 1 0.62491 0.465527 0.447387
275 1 0.627497 0.476863 0.460786
276 1 0.629058 0.511615 0.463466
278 1 0.627497 0.476863 0.423269
279 1 0.629058 0.488385 0.436668
280 1 0.627497 0.523137 0.439348
194 1 0.419208 0.60131 0.447387
195 1 0.410452 0.59366 0.460786
204 1 0.410452 0.59366 0.423269
205 1 0.402417 0.585256 0.436668
166 1 0.571385 0.608144 0.447387
167 1 0.561404 0.614107 0.460786
168 1 0.528834 0.626331 0.463466
176 1 0.561404 0.614107 0.423269
177 1 0.550928 0.619152 0.436668
178 1 0.517394 0.628407 0.439348
179 1 0.505814 0.629449 0.452747
180 1 0.471166 0.626331 0.455427
181 1 0.459958 0.623238 0.468825
182 1 0.428615 0.608144 0.471505
191 1 0.494186 0.629449 0.428629
192 1 0.459958 0.623238 0.431309
193 1 0.449072 0.619152 0.444707
153 1 0.604832 0.576165 0.468825
154 1 0.580792 0.60131 0.471505
164 1 0.604832 0.576165 0.431309
165 1 0.597583 0.585256 0.444707
212 1 0.395168 0.423835 0.487584
213 1 0.402417 0.414744 0.500983
225 1 0.410452 0.40634 0.476865
385 1 0.395168 0.423835 0.525101
214 1 0.428615 0.391856 0.503662
215 1 0.438596 0.385893 0.517061
216 1 0.471166 0.373669 0.519741
226 1 0.438596 0.385893 0.479544
227 1 0.449072 0.380848 0.492943
228 1 0.482606 0.371593 0.495623
229 1 0.494186 0.370551 0.509022
230 1 0.528834 0.373669 0.511702
239 1 0.505814 0.370551 0.484904
240 1 0.540042 0.376762 0.487584
241 1 0.550928 0.380848 0.500983
253 1 0.561404 0.385893 0.476865
409 1 0.540042 0.376762 0.525101
242 1 0.580792 0.39869 0.503662
243 1 0.589548 0.40634 0.517061
254 1 0.589548 0.40634 0.479544
255 1 0.597583 0.414744 0.492943
185 1 0.388762 0.566461 0.500983
186 1 0.37509 0.534473 0.503662
187 1 0.372503 0.523137 0.517061
188 1 0.370942 0.488385 0.519741
197 1 0.383253 0.556223 0.476865
198 1 0.372503 0.523137 0.479544
199 1 0.370942 0.511615 0.492943
200 1 0.372503 0.476863 0.495623
201 1 0.37509 0.465527 0.509022
202 1 0.388762 0.433539 0.511702
211 1 0.378683 0.454469 0.484904
141 1 0.629058 0.511615 0.500983
142 1 0.621317 0.545531 0.503662
143 1 0.616747 0.556223 0.517061
145 1 0.627497 0.523137 0.476865
146 1 0.616747 0.556223 0.479544
147 1 0.611238 0.566461 0.492943
244 1 0.611238 0.433539 0.519741
256 1 0.616747 0.443777 0.495623
257 1 0.621317 0.454469 0.509022
258 1 0.629058 0.488385 0.511702
267 1 0.62491 0.465527 0.484904
268 1 0.62958 0.5 0.487584
301 1 0.62958 0.5 0.525101
174 1 0.402417 0.585256 0.511702
183 1 0.419208 0.60131 0.484904
184 1 0.395168 0.576165 0.487584
357 1 0.395168 0.576165 0.525101
150 1 0.550928 0.619152 0.511702
155 1 0.571385 0.608144 0.484904
156 1 0.540042 0.623238 0.487584
157 1 0.528834 0.626331 0.500983
158 1 0.494186 0.629449 0.503662
159 1 0.482606 0.628407 0.517061
160 1 0.449072 0.619152 0.519741
169 1 0.517394 0.628407 0.476865
170 1 0.482606 0.628407 0.479544
171 1 0.471166 0.626331 0.492943
172 1 0.438596 0.614107 0.495623
173 1 0.428615 0.608144 0.509022
329 1 0.540042 0.623238 0.525101
144 1 0.597583 0.585256 0.519741
148 1 0.589548 0.59366 0.495623
149 1 0.580792 0.60131 0.509022
364 1 0.402417 0.414744 0.576016
374 1 0.410452 0.40634 0.551898
375 1 0.419208 0.39869 0.565297
386 1 0.419208 0.39869 0.52778
376 1 0.449072 0.380848 0.567977
387 1 0.428615 0.391856 0.541179
388 1 0.459958 0.376762 0.543859
389 1 0.471166 0.373669 0.557258
390 1 0.505814 0.370551 0.559938
392 1 0.550928 0.380848 0.576016
399 1 0.482606 0.371593 0.53314
400 1 0.517394 0.371593 0.53582
401 1 0.528834 0.373669 0.549218
402 1 0.561404 0.385893 0.551898
403 1 0.571385 0.391856 0.565297
410 1 0.571385 0.391856 0.52778
404 1 0.597583 0.414744 0.567977
411 1 0.580792 0.39869 0.541179
412 1 0.604832 0.423835 0.543859
336 1 0.388762 0.566461 0.576016
346 1 0.383253 0.556223 0.551898
347 1 0.378683 0.545531 0.565297
358 1 0.378683 0.545531 0.52778
359 1 0.37509 0.534473 0.541179
360 1 0.37042 0.5 0.543859
361 1 0.370942 0.488385 0.557258
362 1 0.378683 0.454469 0.559938
363 1 0.383253 0.443777 0.573336
371 1 0.372503 0.476863 0.53314
372 1 0.383253 0.443777 0.53582
373 1 0.388762 0.433539 0.549218
291 1 0.62491 0.534473 0.565297
292 1 0.611238 0.566461 0.567977
302 1 0.62491 0.534473 0.52778
303 1 0.621317 0.545531 0.541179
414 1 0.62491 0.465527 0.559938
415 1 0.627497 0.476863 0.573336
416 1 0.629058 0.511615 0.576016
417 1 0.616747 0.443777 0.53314
418 1 0.627497 0.476863 0.53582
419 1 0.629058 0.488385 0.549218
420 1 0.627497 0.523137 0.551898
334 1 0.419208 0.60131 0.559938
344 1 0.410452 0.59366 0.53582
345 1 0.402417 0.585256 0.549218
306 1 0.571385 0.608144 0.559938
307 1 0.561404 0.614107 0.573336
308 1 0.528834 0.626331 0.576016
316 1 0.561404 0.614107 0.53582
317 1 0.550928 0.619152 0.549218
318 1 0.517394 0.628407 0.551898
319 1 0.505814 0.629449 0.565297
320 1 0.471166 0.626331 0.567977
330 1 0.505814 0.629449 0.52778
331 1 0.494186 0.629449 0.541179
332 1 0.459958 0.623238 0.543859
333 1 0.449072 0.619152 0.557258
304 1 0.604832 0.576165 0.543859
305 1 0.597583 0.585256 0.557258
315 1 0.589548 0.59366 0.53314
352 1 0.395168 0.423835 0.600134
353 1 0.402417 0.414744 0.613533
365 1 0.410452 0.40634 0.589415
354 1 0.428615 0.391856 0.616213
355 1 0.438596 0.385893 0.629611
366 1 0.438596 0.385893 0.592095
367 1 0.449072 0.380848 0.605494
368 1 0.482606 0.371593 0.608173
369 1 0.494186 0.370551 0.621572
370 1 0.528834 0.373669 0.624252
377 1 0.459958 0.376762 0.581376
378 1 0.494186 0.370551 0.584055
379 1 0.505814 0.370551 0.597454
380 1 0.540042 0.376762 0.600134
381 1 0.550928 0.380848 0.613533
393 1 0.561404 0.385893 0.589415
382 1 0.580792 0.39869 0.616213
383 1 0.589548 0.40634 0.629611
394 1 0.589548 0.40634 0.592095
395 1 0.597583 0.414744 0.605494
405 1 0.604832 0.423835 0.581376
325 1 0.388762 0.566461 0.613533
326 1 0.37509 0.534473 0.616213
327 1 0.372503 0.523137 0.629611
337 1 0.383253 0.556223 0.589415
338 1 0.372503 0.523137 0.592095
339 1 0.370942 0.511615 0.605494
340 1 0.372503 0.476863 0.608173
341 1 0.37509 0.465527 0.621572
342 1 0.388762 0.433539 0.624252
349 1 0.37042 0.5 0.581376
350 1 0.37509 0.465527 0.584055
351 1 0.378683 0.454469 0.597454
281 1 0.629058 0.511615 0.613533
282 1 0.621317 0.545531 0.616213
283 1 0.616747 0.556223 0.629611
285 1 0.627497 0.523137 0.589415
286 1 0.616747 0.556223 0.592095
287 1 0.611238 0.566461 0.605494
396 1 0.616747 0.443777 0.608173
397 1 0.621317 0.454469 0.621572
398 1 0.629058 0.488385 0.624252
406 1 0.621317 0.454469 0.584055
407 1 0.62491 0.465527 0.597454
408 1 0.62958 0.5 0.600134
314 1 0.402417 0.585256 0.624252
323 1 0.419208 0.60131 0.597454
324 1 0.395168 0.576165 0.600134
290 1 0.550928 0.619152 0.624252
295 1 0.571385 0.608144 0.597454
296 1 0.540042 0.623238 0.600134
297 1 0.528834 0.626331 0.613533
299 1 0.482606 0.628407 0.629611
309 1 0.517394 0.628407 0.589415
310 1 0.482606 0.628407 0.592095
311 1 0.471166 0.626331 0.605494
312 1 0.438596 0.614107 0.608173
313 1 0.428615 0.608144 0.621572
321 1 0.459958 0.623238 0.581376
322 1 0.428615 0.608144 0.584055
288 1 0.589548 0.59366 0.608173
289 1 0.580792 0.60131 0.621572
293 1 0.604832 0.576165 0.581376
294 1 0.580792 0.60131 0.584055
514 1 0.410452 0.40634 0.664448
515 1 0.419208 0.39869 0.677847
525 1 0.395168 0.423835 0.637651
526 1 0.419208 0.39869 0.640331
356 1 0.471166 0.373669 0.632291
516 1 0.449072 0.380848 0.680527
527 1 0.428615 0.391856 0.653729
528 1 0.459958 0.376762 0.656409
529 1 0.471166 0.373669 0.669808
530 1 0.505814 0.370551 0.672488
539 1 0.482606 0.371593 0.64569
540 1 0.517394 0.371593 0.64837
541 1 0.528834 0.373669 0.661769
542 1 0.561404 0.385893 0.664448
543 1 0.571385 0.391856 0.677847
549 1 0.540042 0.376762 0.637651
550 1 0.571385 0.391856 0.640331
544 1 0.597583 0.414744 0.680527
551 1 0.580792 0.39869 0.653729
552 1 0.604832 0.423835 0.656409
328 1 0.370942 0.488385 0.632291
486 1 0.383253 0.556223 0.664448
487 1 0.378683 0.545531 0.677847
488 1 0.370942 0.511615 0.680527
498 1 0.378683 0.545531 0.640331
499 1 0.37509 0.534473 0.653729
500 1 0.37042 0.5 0.656409
501 1 0.370942 0.488385 0.669808
502 1 0.378683 0.454469 0.672488
511 1 0.372503 0.476863 0.64569
512 1 0.383253 0.443777 0.64837
513 1 0.388762 0.433539 0.661769
384 1 0.611238 0.433539 0.632291
431 1 0.62491 0.534473 0.677847
432 1 0.611238 0.566461 0.680527
441 1 0.62958 0.5 0.637651
443 1 0.621317 0.545531 0.653729
553 1 0.611238 0.433539 0.669808
554 1 0.62491 0.465527 0.672488
557 1 0.616747 0.443777 0.64569
558 1 0.627497 0.476863 0.64837
559 1 0.629058 0.488385 0.661769
560 1 0.627497 0.523137 0.664448
474 1 0.419208 0.60131 0.672488
484 1 0.410452 0.59366 0.64837
485 1 0.402417 0.585256 0.661769
497 1 0.395168 0.576165 0.637651
300 1 0.449072 0.619152 0.632291
446 1 0.571385 0.608144 0.672488
456 1 0.561404 0.614107 0.64837
457 1 0.550928 0.619152 0.661769
458 1 0.517394 0.628407 0.664448
459 1 0.505814 0.629449 0.677847
460 1 0.471166 0.626331 0.680527
469 1 0.540042 0.623238 0.637651
470 1 0.505814 0.629449 0.640331
471 1 0.494186 0.629449 0.653729
472 1 0.459958 0.623238 0.656409
473 1 0.449072 0.619152 0.669808
483 1 0.438596 0.614107 0.64569
284 1 0.597583 0.585256 0.632291
444 1 0.604832 0.576165 0.656409
445 1 0.597583 0.585256 0.669808
455 1 0.589548 0.59366 0.64569
492 1 0.395168 0.423835 0.712684
493 1 0.402417 0.414744 0.726083
504 1 0.402417 0.414744 0.688566
505 1 0.410452 0.40634 0.701965
494 1 0.428615 0.391856 0.728763
506 1 0.438596 0.385893 0.704645
507 1 0.449072 0.380848 0.718044
508 1 0.482606 0.371593 0.720724
509 1 0.494186 0.370551 0.734122
510 1 0.528834 0.373669 0.736802
517 1 0.459958 0.376762 0.693926
518 1 0.494186 0.370551 0.696606
519 1 0.505814 0.370551 0.710005
520 1 0.540042 0.376762 0.712684
521 1 0.550928 0.380848 0.726083
531 1 0.517394 0.371593 0.685887
532 1 0.550928 0.380848 0.688566
533 1 0.561404 0.385893 0.701965
522 1 0.580792 0.39869 0.728763
534 1 0.589548 0.40634 0.704645
535 1 0.597583 0.414744 0.718044
545 1 0.604832 0.423835 0.693926
465 1 0.388762 0.566461 0.726083
466 1 0.37509 0.534473 0.728763
476 1 0.388762 0.566461 0.688566
477 1 0.383253 0.556223 0.701965
478 1 0.372503 0.523137 0.704645
479 1 0.370942 0.511615 0.718044
480 1 0.372503 0.476863 0.720724
481 1 0.37509 0.465527 0.734122
482 1 0.388762 0.433539 0.736802
489 1 0.37042 0.5 0.693926
490 1 0.37509 0.465527 0.696606
491 1 0.378683 0.454469 0.710005
503 1 0.383253 0.443777 0.685887
421 1 0.629058 0.511615 0.726083
422 1 0.621317 0.545531 0.728763
425 1 0.627497 0.523137 0.701965
426 1 0.616747 0.556223 0.704645
427 1 0.611238 0.566461 0.718044
536 1 0.616747 0.443777 0.720724
537 1 0.621317 0.454469 0.734122
538 1 0.629058 0.488385 0.736802
546 1 0.621317 0.454469 0.696606
547 1 0.62491 0.465527 0.710005
548 1 0.62958 0.5 0.712684
555 1 0.627497 0.476863 0.685887
556 1 0.629058 0.511615 0.688566
454 1 0.402417 0.585256 0.736802
463 1 0.419208 0.60131 0.710005
464 1 0.395168 0.576165 0.712684
475 1 0.410452 0.59366 0.685887
430 1 0.550928 0.619152 0.736802
435 1 0.571385 0.608144 0.710005
436 1 0.540042 0.623238 0.712684
437 1 0.528834 0.626331 0.726083
438 1 0.494186 0.629449 0.728763
447 1 0.561404 0.614107 0.685887
448 1 0.528834 0.626331 0.688566
449 1 0.517394 0.628407 0.701965
450 1 0.482606 0.628407 0.704645
451 1 0.471166 0.626331 0.718044
452 1 0.438596 0.614107 0.720724
453 1 0.428615 0.608144 0.734122
461 1 0.459958 0.623238 0.693926
462 1 0.428615 0.608144 0.696606
428 1 0.589548 0.59366 0.720724
429 1 0.580792 0.60131 0.734122
433 1 0.604832 0.576165 0.693926
434 1 0.580792 0.60131 0.696606
654 2 0.410452 0.40634 0.776999
665 1 0.395168 0.423835 0.750201
666 1 0.419208 0.39869 0.752881
495 1 0.438596 0.385893 0.742162
496 1 0.471166 0.373669 0.744842
667 2 0.428615 0.391856 0.76628
668 2 0.459958 0.376762 0.768959
669 2 0.471166 0.373669 0.782358
670 2 0.505814 0.370551 0.785038
679 2 0.482606 0.371593 0.75824
680 2 0.517394 0.371593 0.76092
681 2 0.528834 0.373669 0.774319
682 2 0.561404 0.385893 0.776999
689 1 0.540042 0.376762 0.750201
690 1 0.571385 0.391856 0.752881
523 1 0.589548 0.40634 0.742162
691 2 0.580792 0.39869 0.76628
692 2 0.604832 0.423835 0.768959
467 1 0.372503 0.523137 0.742162
468 1 0.370942 0.488385 0.744842
626 2 0.383253 0.556223 0.776999
638 1 0.378683 0.545531 0.752881
639 2 0.37509 0.534473 0.76628
640 2 0.37042 0.5 0.768959
641 2 0.370942 0.488385 0.782358
642 2 0.378683 0.454469 0.785038
651 2 0.372503 0.476863 0.75824
652 2 0.383253 0.443777 0.76092
653 2 0.388762 0.433539 0.774319
700 2 0.627497 0.523137 0.776999
699 2 0.629058 0.488385 0.774319
698 2 0.627497 0.476863 0.76092
697 2 0.616747 0.443777 0.75824
423 1 0.616747 0.556223 0.742162
694 2 0.62491 0.465527 0.785038
524 1 0.611238 0.433539 0.744842
581 1 0.62958 0.5 0.750201
582 1 0.62491 0.534473 0.752881
583 2 0.621317 0.545531 0.76628
693 2 0.611238 0.433539 0.782358
614 2 0.419208 0.60131 0.785038
624 2 0.410452 0.59366 0.76092
625 2 0.402417 0.585256 0.774319
637 1 0.395168 0.576165 0.750201
439 1 0.482606 0.628407 0.742162
440 1 0.449072 0.619152 0.744842
586 2 0.571385 0.608144 0.785038
596 2 0.561404 0.614107 0.76092
597 2 0.550928 0.619152 0.774319
598 2 0.517394 0.628407 0.776999
609 1 0.540042 0.623238 0.750201
610 1 0.505814 0.629449 0.752881
611 2 0.494186 0.629449 0.76628
612 2 0.459958 0.623238 0.768959
613 2 0.449072 0.619152 0.782358
623 2 0.438596 0.614107 0.75824
424 1 0.597583 0.585256 0.744842
584 2 0.604832 0.576165 0.768959
585 2 0.597583 0.585256 0.782358
595 2 0.589548 0.59366 0.75824
632 2 0.395168 0.423835 0.825235
633 2 0.402417 0.414744 0.838633
644 2 0.402417 0.414744 0.801117
645 2 0.410452 0.40634 0.814515
655 2 0.419208 0.39869 0.790398
634 2 0.428615 0.391856 0.841313
646 2 0.438596 0.385893 0.817195
647 2 0.449072 0.380848 0.830594
648 2 0.482606 0.371593 0.833274
656 2 0.449072 0.380848 0.793077
657 2 0.459958 0.376762 0.806476
658 2 0.494186 0.370551 0.809156
659 2 0.505814 0.370551 0.822555
660 2 0.540042 0.376762 0.825235
661 2 0.550928 0.380848 0.838633
671 2 0.517394 0.371593 0.798437
672 2 0.550928 0.380848 0.801117
673 2 0.561404 0.385893 0.814515
683 2 0.571385 0.391856 0.790398
662 2 0.580792 0.39869 0.841313
674 2 0.589548 0.40634 0.817195
675 2 0.597583 0.414744 0.830594
684 2 0.597583 0.414744 0.793077
685 2 0.604832 0.423835 0.806476
605 2 0.388762 0.566461 0.838633
606 2 0.37509 0.534473 0.841313
616 2 0.388762 0.566461 0.801117
617 2 0.383253 0.556223 0.814515
618 2 0.372503 0.523137 0.817195
619 2 0.370942 0.511615 0.830594
620 2 0.372503 0.476863 0.833274
627 2 0.378683 0.545531 0.790398
628 2 0.370942 0.511615 0.793077
629 2 0.37042 0.5 0.806476
630 2 0.37509 0.465527 0.809156
631 2 0.378683 0.454469 0.822555
643 2 0.383253 0.443777 0.798437
696 2 0.629058 0.511615 0.801117
695 2 0.627497 0.476863 0.798437
561 2 0.629058 0.511615 0.838633
562 2 0.621317 0.545531 0.841313
565 2 0.627497 0.523137 0.814515
566 2 0.616747 0.556223 0.817195
567 2 0.611238 0.566461 0.830594
571 2 0.62491 0.534473 0.790398
572 2 0.611238 0.566461 0.793077
676 2 0.616747 0.443777 0.833274
686 2 0.621317 0.454469 0.809156
687 2 0.62491 0.465527 0.822555
688 2 0.62958 0.5 0.825235
603 2 0.419208 0.60131 0.822555
604 2 0.395168 0.576165 0.825235
615 2 0.410452 0.59366 0.798437
575 2 0.571385 0.608144 0.822555
576 2 0.540042 0.623238 0.825235
577 2 0.528834 0.626331 0.838633
578 2 0.494186 0.629449 0.841313
587 2 0.561404 0.614107 0.798437
588 2 0.528834 0.626331 0.801117
589 2 0.517394 0.628407 0.814515
590 2 0.482606 0.628407 0.817195
591 2 0.471166 0.626331 0.830594
592 2 0.438596 0.614107 0.833274
599 2 0.505814 0.629449 0.790398
600 2 0.471166 0.626331 0.793077
601 2 0.459958 0.623238 0.806476
602 2 0.428615 0.608144 0.809156
568 2 0.589548 0.59366 0.833274
573 2 0.604832 0.576165 0.806476
574 2 0.580792 0.60131 0.809156
635 2 0.438596 0.385893 0.854712
636 2 0.471166 0.373669 0.857392
649 2 0.494186 0.370551 0.846673
650 2 0.528834 0.373669 0.849352
663 2 0.589548 0.40634 0.854712
607 2 0.372503 0.523137 0.854712
608 2 0.370942 0.488385 0.857392
621 2 0.37509 0.465527 0.846673
622 2 0.388762 0.433539 0.849352
563 2 0.616747 0.556223 0.854712
664 2 0.611238 0.433539 0.857392
677 2 0.621317 0.454469 0.846673
678 2 0.629058 0.488385 0.849352
594 2 0.402417 0.585256 0.849352
570 2 0.550928 0.619152 0.849352
579 2 0.482606 0.628407 0.854712
580 2 0.449072 0.619152 0.857392
593 2 0.428615 0.608144 0.846673
564 2 0.597583 0.585256 0.857392
569 2 0.580792 0.60131 0.846673
ITEM: TIMESTEP
500
ITEM: NUMBER OF ATOMS
693
ITEM: BOX BOUNDS pp pp pp
-2.0000000000000000e+01 2.0000000000000000e+01
-2.0000000000000000e+01 2.0000000000000000e+01
-3.0000000000000000e+01 7.0000000000000000e+01
ITEM: ATOMS id type xs ys zs
105 3 0.405116 0.424822 0.307276
106 3 0.417847 0.392691 0.310217
119 3 0.485936 0.36118 0.316733
120 3 0.519439 0.372439 0.317535
129 3 0.541779 0.382484 0.307506
130 3 0.575708 0.384356 0.310732
78 3 0.372757 0.544356 0.310351
91 3 0.364916 0.469627 0.316594
92 3 0.387233 0.441998 0.317259
21 3 0.623436 0.500596 0.307002
22 3 0.631965 0.534145 0.30925
137 3 0.62693 0.44055 0.316565
138 3 0.626064 0.476216 0.317025
64 3 0.409743 0.588414 0.317385
77 3 0.398478 0.566801 0.307142
36 3 0.559289 0.61194 0.315974
49 3 0.534525 0.616797 0.306434
50 3 0.505371 0.634342 0.309392
63 3 0.429338 0.617979 0.316278
35 3 0.592777 0.60067 0.315858
84 3 0.403457 0.409816 0.357421
85 3 0.410877 0.403925 0.370816
94 3 0.414106 0.402204 0.333563
95 3 0.421531 0.39541 0.346866
86 3 0.440512 0.387196 0.373159
96 3 0.452253 0.379871 0.349683
97 3 0.462594 0.378595 0.362902
98 3 0.495975 0.371305 0.36502
107 3 0.430902 0.38522 0.32304
108 3 0.462668 0.370884 0.326228
109 3 0.474272 0.372568 0.33938
110 3 0.509366 0.3727 0.341375
111 3 0.519489 0.372093 0.354585
112 3 0.552826 0.380052 0.357255
113 3 0.560255 0.386641 0.370578
121 3 0.531121 0.378192 0.330762
122 3 0.564826 0.385578 0.333765
123 3 0.572555 0.391847 0.346938
114 3 0.585393 0.410275 0.372787
124 3 0.597066 0.415847 0.349562
125 3 0.601334 0.42684 0.362565
131 3 0.584881 0.3963 0.323197
132 3 0.609237 0.42107 0.325779
56 3 0.388346 0.562968 0.357168
57 3 0.386497 0.551891 0.370354
58 3 0.378057 0.518753 0.372865
66 3 0.38325 0.550876 0.333429
67 3 0.380028 0.541437 0.346606
68 3 0.373555 0.507817 0.349702
69 3 0.376367 0.495835 0.362602
70 3 0.378112 0.461867 0.365071
79 3 0.372072 0.5298 0.322954
80 3 0.366931 0.495545 0.325995
81 3 0.372467 0.485058 0.339234
82 3 0.384514 0.45127 0.341601
83 3 0.386456 0.439944 0.354715
93 3 0.396216 0.432527 0.330462
5 3 0.625943 0.52221 0.369947
6 3 0.612313 0.553551 0.372644
11 3 0.624438 0.533605 0.345977
12 3 0.609623 0.564316 0.348835
23 3 0.6237 0.54757 0.321948
126 3 0.618945 0.456226 0.364566
133 3 0.611176 0.432809 0.339019
134 3 0.621359 0.466666 0.341041
135 3 0.625943 0.477535 0.354108
136 3 0.629765 0.511796 0.356575
139 3 0.624005 0.489122 0.330199
140 3 0.627363 0.524303 0.332722
54 3 0.420434 0.595548 0.341173
55 3 0.411742 0.588542 0.354324
65 3 0.405465 0.577591 0.330611
26 3 0.568548 0.604843 0.340103
27 3 0.560408 0.611988 0.353265
28 3 0.528534 0.625241 0.356438
29 3 0.518286 0.625776 0.369809
30 3 0.484715 0.621173 0.372417
37 3 0.546458 0.613531 0.329297
38 3 0.514227 0.627148 0.332539
39 3 0.505098 0.627449 0.345928
40 3 0.47102 0.62218 0.348935
41 3 0.461517 0.615941 0.362221
42 3 0.430221 0.601869 0.364746
51 3 0.490679 0.629137 0.321968
52 3 0.456449 0.624405 0.324994
53 3 0.448768 0.616869 0.338467
13 3 0.601406 0.572625 0.361999
14 3 0.57925 0.599043 0.363974
24 3 0.606739 0.577779 0.324794
25 3 0.59703 0.583085 0.338102
72 3 0.393548 0.420946 0.380796
73 3 0.398981 0.411254 0.393936
245 1 0.39118 0.421148 0.417753
246 1 0.414532 0.395925 0.420239
74 3 0.427239 0.392052 0.396535
75 1 0.435321 0.384937 0.409736
76 1 0.467793 0.372647 0.412072
87 3 0.448975 0.38264 0.386221
88 3 0.481451 0.370839 0.388743
89 3 0.492332 0.368345 0.401936
90 3 0.527099 0.372218 0.404513
99 3 0.505382 0.369341 0.378306
100 3 0.539104 0.375106 0.381026
101 3 0.549706 0.379445 0.394162
259 1 0.479997 0.372598 0.425248
269 1 0.537393 0.379947 0.417466
270 1 0.567278 0.3969 0.419912
102 3 0.576952 0.40151 0.396384
103 1 0.585373 0.410652 0.409415
115 3 0.59281 0.419055 0.385721
45 3 0.389751 0.562939 0.393236
46 3 0.377449 0.53105 0.396105
47 1 0.374907 0.520035 0.40923
48 1 0.369643 0.486055 0.411884
59 3 0.374322 0.507634 0.385885
60 3 0.372956 0.473474 0.388651
61 3 0.372064 0.462328 0.401771
62 3 0.384532 0.42998 0.404451
71 3 0.378435 0.451246 0.378291
218 1 0.38527 0.540701 0.419592
231 1 0.372288 0.47506 0.42518
1 3 0.62929 0.51329 0.393545
2 3 0.619767 0.54596 0.396471
3 1 0.617041 0.559109 0.409341
7 3 0.608325 0.564933 0.385573
104 1 0.608255 0.436666 0.412115
116 3 0.614298 0.445904 0.38814
117 3 0.619694 0.456904 0.401265
118 3 0.628209 0.490581 0.403971
127 3 0.623806 0.46625 0.377675
128 3 0.629181 0.499677 0.380617
161 1 0.626809 0.503492 0.416892
162 1 0.624618 0.537811 0.419768
277 1 0.613157 0.448388 0.425221
34 3 0.406423 0.580265 0.403476
43 3 0.420664 0.596747 0.377919
44 3 0.396893 0.572728 0.380333
217 1 0.401441 0.570307 0.416562
10 3 0.553984 0.620457 0.403925
15 3 0.572054 0.608411 0.377319
16 3 0.54134 0.623058 0.380245
17 3 0.53094 0.627299 0.393558
18 3 0.496479 0.624925 0.395845
19 1 0.485817 0.624089 0.408941
20 1 0.453145 0.61434 0.411307
31 3 0.473802 0.619236 0.385384
32 3 0.441653 0.608034 0.3879
33 3 0.432252 0.602791 0.400915
189 1 0.542288 0.621984 0.416908
190 1 0.508215 0.627151 0.419429
203 1 0.442991 0.609475 0.424495
4 1 0.600137 0.588178 0.412073
8 3 0.589801 0.594165 0.388043
9 3 0.583793 0.603745 0.401298
175 1 0.590656 0.595008 0.425203
224 1 0.40587 0.419892 0.467678
234 1 0.409042 0.406261 0.444274
235 1 0.419744 0.401256 0.45738
236 1 0.448451 0.382692 0.460079
237 1 0.460964 0.379844 0.472907
238 1 0.495157 0.373664 0.475084
247 1 0.424796 0.389962 0.433574
248 1 0.457453 0.376751 0.435967
249 1 0.469606 0.376961 0.449421
250 1 0.504165 0.378597 0.451604
251 1 0.517103 0.377396 0.464459
252 1 0.551015 0.383593 0.467019
260 1 0.514666 0.375764 0.427825
261 1 0.526157 0.381429 0.440878
262 1 0.558595 0.392054 0.443406
263 1 0.571166 0.395707 0.456434
264 1 0.597329 0.418254 0.459288
265 1 0.605096 0.427274 0.472184
271 1 0.577176 0.404328 0.432916
272 1 0.602093 0.427848 0.435688
196 1 0.388272 0.569084 0.465754
206 1 0.388012 0.554233 0.442749
207 1 0.378869 0.546738 0.455834
208 1 0.370178 0.513414 0.458829
209 1 0.369005 0.503399 0.472066
210 1 0.375352 0.469893 0.475147
219 1 0.382214 0.530979 0.432916
220 1 0.373815 0.498154 0.435582
221 1 0.373483 0.488881 0.449156
222 1 0.381039 0.45572 0.452125
223 1 0.385303 0.447174 0.465314
232 1 0.381738 0.442024 0.428047
233 1 0.388539 0.434421 0.441571
151 1 0.624665 0.537491 0.456591
152 1 0.60903 0.567797 0.459448
163 1 0.621393 0.54843 0.432956
266 1 0.621142 0.45755 0.474655
273 1 0.61132 0.43658 0.448807
274 1 0.626216 0.468279 0.450984
275 1 0.628741 0.479717 0.464169
276 1 0.629522 0.51387 0.466786
278 1 0.623039 0.481114 0.427518
279 1 0.627855 0.492043 0.440632
280 1 0.626874 0.526289 0.44335
194 1 0.421612 0.601121 0.450239
195 1 0.409934 0.595828 0.463192
204 1 0.415394 0.589334 0.426733
205 1 0.40713 0.582284 0.439918
166 1 0.570711 0.607974 0.451199
167 1 0.560582 0.614248 0.464118
168 1 0.529047 0.627491 0.46681
176 1 0.562382 0.613993 0.427587
177 1 0.552127 0.619363 0.440583
178 1 0.519064 0.629149 0.443046
179 1 0.506778 0.630875 0.456199
180 1 0.472354 0.627693 0.458586
181 1 0.460089 0.625183 0.471383
182 1 0.429344 0.610004 0.473171
191 1 0.496799 0.628732 0.432495
192 1 0.46282 0.622449 0.434885
193 1 0.451468 0.618743 0.448043
153 1 0.601166 0.574759 0.472457
154 1 0.57834 0.600172 0.474866
164 1 0.604688 0.577875 0.435772