LAMMPS (30 Jul 2021)
OMP_NUM_THREADS environment is not set. Defaulting to 1 thread. (src/comm.cpp:98)
  using 1 OpenMP thread(s) per MPI task
Reading data file ...
  orthogonal box = (-30.000000 -80.000000 -30.000000) to (30.000000 80.000000 30.000000)
  2 by 5 by 2 MPI processor grid
  reading atoms ...
  18522 atoms
  scanning bonds ...
  3 = max bonds/atom
  scanning angles ...
  6 = max angles/atom
  scanning dihedrals ...
  7 = max dihedrals/atom
  scanning impropers ...
  2 = max impropers/atom
  reading bonds ...
  18524 bonds
  reading angles ...
  20842 angles
  reading dihedrals ...
  23160 dihedrals
  reading impropers ...
  4632 impropers
Finding 1-2 1-3 1-4 neighbors ...
  special bond factors lj:    0        0        0.5     
  special bond factors coul:  0        0        0.5     
     4 = max # of 1-2 neighbors
    12 = max # of 1-3 neighbors
    30 = max # of 1-4 neighbors
  50948 = # of 1-3 neighbors before angle trim
  41684 = # of 1-3 neighbors after angle trim
  72564 = # of 1-4 neighbors before dihedral trim
  41688 = # of 1-4 neighbors after dihedral trim
    13 = max # of special neighbors
  special bonds CPU = 0.015 seconds
  read_data CPU = 0.127 seconds
2314 atoms in group H2O
6942 atoms in group H2O
6176 atoms in group tol
11580 atoms in group tol
Finding SHAKE clusters ...
       0 = # of size 2 clusters
       0 = # of size 3 clusters
       0 = # of size 4 clusters
    2314 = # of frozen angles
  find clusters CPU = 0.001 seconds
PPPM initialization ...
  extracting TIP4P info from pair style
  using 12-bit tables for long-range coulomb (src/kspace.cpp:340)
  G vector (1/distance) = 0.20632207
  grid = 24 48 24
  stencil order = 5
  estimated absolute RMS force accuracy = 0.027685199
  estimated relative force accuracy = 8.3373155e-05
  using double precision KISS FFT
  3d grid and FFT values/proc = 4624 2304
Neighbor list info ...
  update every 1 steps, delay 10 steps, check yes
  max neighbors/atom: 2000, page size: 100000
  master list distance cutoff = 14.3092
  ghost atom cutoff = 14.3092
  binsize = 7.1546, bins = 9 23 9
  1 neighbor lists, perpetual/occasional/extra = 1 0 0
  (1) pair lj/cut/tip4p/long, perpetual
      attributes: half, newton on
      pair build: half/bin/newton
      stencil: half/bin/3d
      bin: standard
Setting up Verlet run ...
  Unit style    : real
  Current step  : 0
  Time step     : 1
Per MPI rank memory allocation (min/avg/max) = 15.11 | 15.46 | 15.71 Mbytes
Step Temp E_pair E_mol TotEng Press 
       0            0   -11796.789    254.88274   -11541.906    -1950.852 
     500    38.554256    -22591.59    102.79895   -20626.236   -893.17607 
    1000    21.408552   -27423.737    88.863867   -26300.626   -542.19987 
    1500    18.781646   -29924.445    100.56815   -28916.536   -533.92802 
    2000    17.837041    -31458.61    113.49499   -30483.408   -468.82021 
    2500    20.202921   -32701.876     131.9031    -31593.97   -362.67561 
    3000    22.216893   -33696.936    145.63356   -32478.004   -298.50911 
    3500    24.484542   -34511.448    174.59927   -33154.001   -258.52331 
    4000    26.531837   -35140.156    196.13659   -33662.266   -278.11107 
    4500     29.09435   -35654.142    227.81875   -34020.776   -226.79853 
    5000    32.041958   -36066.544    257.74965   -34260.847   -257.09851 
    5500    34.315434   -36390.502    296.57857   -34436.145   -211.98653 
    6000    37.666449   -36725.149    331.34092   -34574.142   -181.30105 
    6500    40.323418   -37018.828    365.78518   -34705.019   -167.33007 
    7000    43.366759   -37219.513    401.02057   -34723.445   -189.42667 
    7500    46.310203    -37473.67    446.36886   -34790.056   -142.98183 
    8000    48.483835   -37606.075     491.7504   -34772.071   -186.69848 
    8500    51.318649   -37763.154    525.11919   -34758.831   -130.09792 
    9000    54.867373    -37965.52    582.92966   -34731.948   -168.80021 
    9500     57.54138   -38094.505    626.36122    -34688.32   -81.084247 
   10000    61.177413   -38260.529    676.78534   -34628.263   -77.528813 
   10500    63.252902   -38309.077    732.88853   -34520.442   -59.903424 
   11000    66.362351   -38439.925    775.41019   -34458.551   -47.207452 
   11500    69.342494   -38557.193    829.92566   -34377.332   -52.217666 
   12000    72.651801   -38640.727    912.10601   -34218.814   -112.91435 
   12500    74.982197   -38723.452    963.67312    -34137.39   -166.79156 
   13000    78.445599   -38883.261    1038.3148    -34055.24   -100.77192 
   13500    81.104225   -38970.495    1100.0587   -33952.293   -163.03722 
   14000    83.755194    -39026.88     1153.824   -33826.843   -41.477432 
   14500    87.956794   -39060.869    1224.6448   -33587.033    -73.96354 
   15000    90.606649   -39115.684    1301.1814   -33437.296    42.556636 
   15500    93.325519   -39201.923    1373.3207   -33320.048   -43.300357 
   16000    95.246188   -39171.903    1439.9738   -33130.587    -146.4323 
   16500    99.668443   -39292.839    1520.0643   -32957.793   -74.515236 
   17000    101.24038   -39272.957    1599.3511   -32782.685   -143.47941 
   17500    105.16236   -39369.047    1689.9464   -32598.708   -23.926848 
   18000    108.19783   -39434.731    1755.1909   -32452.504   -30.888814 
   18500    111.10083   -39469.465    1837.3436   -32264.842    92.007642 
   19000    114.00433   -39541.913    1948.2734   -32086.091   -12.149926 
   19500      116.519   -39588.367    2031.8133   -31927.522    36.138904 
   20000    120.10729   -39619.146    2097.6621   -31719.102    4.7244587 
   20500    122.55982   -39627.921     2203.186   -31503.872    32.512822 
   21000    124.87282   -39608.758     2279.183    -31296.97   -38.054747 
   21500    128.17733   -39697.214    2412.4632   -31092.505   -96.917422 
   22000    132.27479   -39725.453     2465.392   -30869.868    12.912509 
   22500    133.14037   -39665.602    2580.6845   -30652.908    30.650831 
   23000    136.75592   -39708.796    2713.4198   -30388.699    126.14735 
   23500    140.81539   -39701.613    2807.9955   -30090.828   -76.052845 
   24000    143.36631   -39664.245    2908.7011   -29829.519     33.70659 
   24500    146.29018   -39631.173    3027.1712   -29536.725    170.89436 
   25000    149.43485   -39521.129    3062.5138    -29239.42     3.783637 
   25500    151.18085   -39537.787    3217.9763   -29016.266    14.295196 
   26000    155.26903   -39563.962    3323.4741   -28739.442   -84.462436 
   26500    157.24944   -39498.917    3450.3387   -28451.859   -14.525548 
   27000    159.82865   -39435.528    3505.6138   -28208.594    18.856947 
   27500    163.62021   -39538.657    3663.5969    -27970.57    22.345227 
   28000    166.82961   -39484.626    3768.3606   -27656.729   0.52999905 
   28500     170.3015   -39463.266    3880.8881   -27355.115    21.706107 
   29000     174.2376   -39364.146     3955.369   -26991.361    25.573373 
   29500     176.4386   -39394.568     4106.588   -26764.234    89.449363 
   30000    180.27356   -39464.232    4218.6111   -26536.607   -42.722139 
   30500    181.28138    -39433.75    4344.0719   -26331.977    87.789632 
   31000    185.09176   -39308.792    4378.2175   -25988.793   -71.585169 
   31500    188.21113    -39346.94    4550.1085   -25704.354     113.0731 
   32000    192.37114   -39326.156    4617.9224   -25414.786    6.8005913 
   32500    195.35682   -39236.633    4733.2351   -25065.712   -55.150647 
   33000    196.64267   -39162.542    4859.5817   -24803.155    17.590442 
   33500    201.30461   -39217.687    5019.8035    -24472.86   -359.12041 
   34000     202.0188   -39081.175    5117.6739   -24203.975   -8.3440856 
   34500    204.47799   -39012.424    5223.3026   -23910.793   -77.251011 
   35000     209.4537   -39097.255    5296.5163   -23682.033   -180.35717 
   35500    213.97365   -39036.263    5326.1264   -23373.071    10.547273 
   36000    215.59666   -39018.537    5505.2914   -23097.773   -159.56285 
   36500    217.23652   -38944.509    5699.6127   -22750.203    -230.2526 
   37000    223.12213   -38917.379    5680.0955   -22458.256   -152.83621 
   37500    225.01468   -38863.418    5800.9475   -22192.013   -115.38508 
   38000    225.65753   -38768.173    6016.4173   -21850.243    115.26687 
   38500    229.76462   -38784.863    6117.4815   -21567.456    -57.07143 
   39000    233.54193   -38718.183    6201.7047    -21234.07   -118.28538 
   39500    236.17069   -38670.992    6285.8874   -20975.702    119.39754 
   40000    238.81214   -38690.041    6380.6852   -20772.345   -70.891934 
   40500    241.64836   -38584.343     6526.834   -20383.479   -66.442256 
   41000    244.18243   -38491.444    6638.0557   -20056.937   -91.436771 
   41500    248.96874   -38453.042     6681.587   -19743.779   -163.46978 
   42000    251.61101   -38475.305    6859.0126   -19460.968     8.779316 
   42500    254.11962   -38310.963      6965.67   -19068.777   -156.21183 
   43000     258.2439    -38223.06    6902.1925   -18845.108   -49.153799 
   43500    260.82521   -38174.723    7137.8799    -18436.38    29.368851 
   44000    263.98868   -38122.602    7252.0767   -18117.235    49.742726 
   44500    264.77191   -38040.315    7431.0357   -17818.152    -23.50259 
   45000     270.4763   -37969.751     7383.882   -17519.162    32.309611 
   45500    272.22484   -37853.519    7559.7993   -17142.541    118.70149 
   46000     272.8195    -37731.66    7765.8936   -16785.859   -139.00343 
   46500    276.89347   -37676.514    7835.9084   -16463.886    70.797407 
   47000    279.75688   -37572.808    7999.2472   -16058.509   -54.296615 
   47500    279.83889   -37414.465    8172.0039   -15723.448   -74.049289 
   48000    285.90124   -37364.753    8149.4181   -15403.449   -116.07394 
   48500    289.86964   -37309.961    8322.4257   -14983.936   -24.802175 
   49000    293.23449   -37190.321    8336.9189   -14687.247   -31.458266 
   49500    295.09408   -37158.358    8490.2972    -14412.07   -47.831219 
   50000    297.06801   -36971.105    8622.5806   -13997.172    21.559974 
Loop time of 1288.82 on 20 procs for 50000 steps with 18522 atoms

Performance: 3.352 ns/day, 7.160 hours/ns, 38.795 timesteps/s
99.7% CPU use with 20 MPI tasks x 1 OpenMP threads

MPI task timing breakdown:
Section |  min time  |  avg time  |  max time  |%varavg| %total
---------------------------------------------------------------
Pair    | 33.965     | 425.23     | 1102.3     |1727.3 | 32.99
Bond    | 1.0666     | 7.2474     | 16.258     | 185.4 |  0.56
Kspace  | 94.236     | 769.39     | 1160.1     |1281.6 | 59.70
Neigh   | 54.022     | 54.369     | 54.617     |   2.7 |  4.22
Comm    | 6.9761     | 12.646     | 20.227     | 128.5 |  0.98
Output  | 0.21333    | 0.21349    | 0.21414    |   0.0 |  0.02
Modify  | 11.286     | 19.117     | 30.538     | 201.4 |  1.48
Other   |            | 0.6127     |            |       |  0.05

Nlocal:        926.100 ave        2588 max           0 min
Histogram: 8 0 0 3 5 0 0 0 0 4
Nghost:        5806.25 ave       14334 max          83 min
Histogram: 8 0 0 0 2 6 0 0 0 4
Neighs:        448118.0 ave 1.39663e+06 max           0 min
Histogram: 8 0 2 6 0 0 0 0 0 4

Total # of neighbors = 8962360
Ave neighs/atom = 483.87647
Ave special neighs/atom = 6.2513767
Neighbor list builds = 1986
Dangerous builds = 0
Changing box ...
  orthogonal box = (-30.000000 -50.000000 -30.000000) to (30.000000 50.000000 30.000000)
PPPM initialization ...
  extracting TIP4P info from pair style
  using 12-bit tables for long-range coulomb (src/kspace.cpp:340)
  G vector (1/distance) = 0.21193939
  grid = 24 36 24
  stencil order = 5
  estimated absolute RMS force accuracy = 0.024967372
  estimated relative force accuracy = 7.5188501e-05
  using double precision KISS FFT
  3d grid and FFT values/proc = 3757 1728
Setting up Verlet run ...
  Unit style    : real
  Current step  : 50000
  Time step     : 1
Per MPI rank memory allocation (min/avg/max) = 15.13 | 20.07 | 34.00 Mbytes
Step Temp E_pair E_mol TotEng Press 
   50000    297.06801   -36971.542    8622.5806   -13997.609    33.748979 
   50500    299.00464   -37023.265    8695.7231   -13882.631   -109.20256 
   51000    301.45707   -37073.692    8678.5205   -13831.784   -53.940297 
   51500    299.53406   -37072.231    8722.7738    -13878.97   -276.46057 
   52000    298.24888   -37135.428    8795.2914   -13931.737    16.773633 
   52500    301.65764    -37094.53    8633.9543   -13887.499    271.99752 
   53000    299.94141   -37112.337    8695.0223   -13927.148    271.48972 
   53500    301.02938   -37100.235    8723.0783   -13834.431    70.055011 
   54000    301.13049   -37072.156    8744.3887   -13780.157    32.076946 
   54500    299.75843   -37016.087    8701.0695   -13833.692      159.207 
   55000    301.18471   -37052.939    8735.2729   -13767.436   -188.12568 
   55500    300.68034   -37075.597    8716.6361   -13833.097   -63.426134 
   56000    299.45724    -37140.71    8794.5183   -13879.416   -221.60528 
   56500    298.67175   -37103.993    8787.0221   -13888.142   -94.817326 
   57000    297.82694   -37190.872    8804.6582   -13998.198   -292.18265 
   57500      298.824   -37286.844      8782.95   -14067.711   -4.5293716 
   58000    301.31596   -37382.401    8743.2603    -14082.57   -100.70683 
   58500     299.4494    -37438.21    8793.9604   -14177.852    162.51055 
   59000     299.5134   -37398.793    8710.3728   -14218.932    297.29104 
   59500    299.70122     -37386.5    8690.8014   -14217.135   -239.90649 
   60000    300.18398   -37438.331    8723.0867    -14213.36   -54.524233 
   60500    298.79926    -37410.76    8777.1011    -14198.67   -91.578502 
   61000    298.47845   -37365.422    8787.5173   -14158.415   -231.28138 
   61500    298.98215   -37454.122    8830.9711   -14179.327    290.33793 
   62000    298.42237   -37379.078    8806.0903   -14156.207   -374.88123 
   62500    299.42807   -37481.574    8815.9155   -14200.292   -39.632744 
   63000    300.76805   -37544.576    8763.1674   -14251.308    2.2511427 
   63500    301.48286   -37509.314    8778.3854   -14166.295     32.21452 
   64000    299.24844   -37488.285     8853.253   -14178.344   -65.795138 
   64500    300.95115   -37533.849    8795.3931   -14199.509    329.06399 
   65000    299.82095   -37632.889     8809.118   -14339.425   -137.66662 
   65500    299.79996   -37601.976    8806.8669   -14311.777    96.862656 
   66000    300.45679   -37643.012    8773.5677   -14354.381   -120.93353 
   66500    299.63706   -37683.614    8840.5702   -14367.581   -97.115478 
   67000     299.3034   -37640.837    8765.1147   -14416.379   -141.57678 
   67500    298.84509   -37596.415    8790.1048   -14369.107    263.21008 
   68000    297.88735   -37668.988    8892.3285   -14385.725   -41.775882 
   68500    302.08188   -37744.899    8763.5727   -14387.754   -333.53776 
   69000    302.26901   -37783.175    8754.5128    -14426.05    18.001126 
   69500    301.00695   -37688.145    8814.9851   -14331.518   -7.6317672 
   70000    299.97255   -37708.897    8828.0321   -14389.194   -29.985143 
   70500    301.55527   -37816.842    8817.9909   -14430.719    178.24714 
   71000     301.5274    -37863.09     8810.651   -14485.654   -89.584697 
   71500    301.48477   -37866.007    8789.2879   -14511.994   -269.81243 
   72000    298.18789   -37740.201    8918.9261   -14415.822   -99.739981 
   72500    299.99888   -37817.775    8881.3514   -14443.481    342.68428 
   73000    299.25773   -37800.485    8855.3274   -14488.021   -321.48434 
   73500    299.60445    -37808.25    8844.2846   -14490.078    132.55874 
   74000    299.05605    -37818.22    8872.7151   -14498.111    -2.143377 
   74500    301.17008   -37908.078    8791.5217   -14567.033   -322.27931 
   75000    299.36076   -37858.225    8879.0539   -14517.056   -15.560074 
   75500    300.26046   -37936.598    8857.9988    -14573.02    69.993597 
   76000    298.52033   -37785.858    8777.7463   -14586.598    211.91072 
   76500    302.64399   -37966.739    8726.5545   -14619.456   -32.988596 
   77000    302.47348   -38011.377    8745.5335   -14653.353    1.3638472 
   77500     299.3764   -37912.818    8825.9171    -14624.03   -259.84026 
   78000    298.65694    -37868.82    8850.1436   -14590.563   -194.60155 
   78500    299.35848   -37885.632    8867.4366   -14556.191   -275.71232 
   79000    299.27951   -37849.029    8914.2315   -14476.608    50.940495 
   79500    298.75072   -37760.793    8901.0564   -14427.093   -304.71393 
   80000      299.932   -37892.022     8868.895   -14533.415    -176.2913 
   80500    300.77562   -37907.628    8842.3778   -14534.783   -260.59628 
   81000    300.53216   -37908.165    8910.6596     -14478.8   -415.51206 
   81500    300.33883   -37933.082    8923.4431   -14500.273    124.90386 
   82000    300.08477   -37979.697    8905.9447   -14576.661    -83.37104 
   82500    300.31083   -37990.721    8866.0462   -14616.663      275.968 
   83000    300.26617   -38220.713    8924.3529   -14790.505     138.2334 
   83500    300.33976   -38194.399    8890.1834   -14794.805   -155.97911 
   84000    300.39587     -38211.2    8903.8535   -14795.226    47.937845 
   84500    300.42211   -38176.253    8893.1104   -14769.754     35.60805 
   85000    299.58698   -38185.615    8959.8814    -14752.69    198.24893 
   85500     298.7796   -38138.265    8985.2422   -14718.984   -17.608832 
   86000    301.70995   -38160.043    8907.5032   -14676.935    235.08493 
   86500    300.17508   -38102.029    8927.4392   -14673.136    -104.3404 
   87000    301.46458   -38121.635    8878.8796   -14679.006    316.48493 
   87500    300.65185   -38002.556    8890.6594   -14587.409   -135.28397 
   88000    300.98185   -38127.087    8897.9889   -14688.669   -604.98325 
   88500    299.97486   -38092.324    8854.0411   -14746.501    41.906873 
   89000    297.32619   -38095.792    9012.2165   -14719.751    42.971936 
   89500     301.5706   -38144.371     8913.742   -14661.756   -203.72608 
   90000    300.56598   -38233.513    8924.0716   -14789.103    269.94401 
   90500    301.88436   -38186.927    8823.3038   -14779.593    41.401809 
   91000    303.06218   -38371.832    8856.9733   -14873.929   -393.91812 
   91500    300.10738   -38283.719    8896.1983   -14889.337   -61.746471 
   92000    299.67199   -38245.398    8948.8003   -14819.447    60.228125 
   92500    301.48643   -38290.278    8921.6851   -14803.787   -108.52218 
   93000    300.67427   -38236.634    8908.2185   -14802.845    44.806593 
   93500    298.29564   -38195.651    8954.3804   -14830.612    75.532377 
   94000    298.97515   -38199.305    8982.8088    -14773.01    4.9680302 
   94500    299.08973   -38117.349     8957.009   -14711.319   -130.72489 
   95000    301.42023   -38195.335    8864.4176    -14769.31   -207.28542 
   95500    301.33782   -38371.707    8912.0075   -14902.073    231.70971 
   96000     300.9629   -38354.909    8924.9874   -14890.407   -181.30698 
   96500    298.50764   -38358.589    9028.0774   -14909.611    44.125422 
   97000    299.36741   -38422.762    9000.7444   -14959.582   -209.43974 
   97500    299.65389   -38424.902    8961.6546   -14986.971    42.060106 
   98000    300.71569   -38529.725    8948.5728   -15053.581   -248.91096 
   98500    298.73151   -38445.561     8971.586   -15042.259    127.75342 
   99000    298.93181   -38460.953    8964.7101    -15054.85   -165.16371 
   99500    296.29129   -38425.663    9088.4943   -15023.339   -114.35879 
  100000    299.79955   -38451.899    8983.7338   -14984.853   -244.31144 
Loop time of 1185.83 on 20 procs for 50000 steps with 18522 atoms

Performance: 3.643 ns/day, 6.588 hours/ns, 42.165 timesteps/s
99.7% CPU use with 20 MPI tasks x 1 OpenMP threads

MPI task timing breakdown:
Section |  min time  |  avg time  |  max time  |%varavg| %total
---------------------------------------------------------------
Pair    | 9.072      | 514.12     | 1035.5     |1826.9 | 43.36
Bond    | 0.36856    | 7.3082     | 12.963     | 189.5 |  0.62
Kspace  | 50.879     | 570.96     | 1074.9     |1729.2 | 48.15
Neigh   | 64.267     | 64.607     | 64.913     |   2.7 |  5.45
Comm    | 11.129     | 15.334     | 20.887     | 106.0 |  1.29
Output  | 0.033065   | 0.033373   | 0.03414    |   0.1 |  0.00
Modify  | 10.88      | 12.905     | 15.51      |  52.0 |  1.09
Other   |            | 0.555      |            |       |  0.05

Nlocal:        926.100 ave        1659 max          30 min
Histogram: 8 0 0 0 0 0 0 0 6 6
Nghost:        7740.35 ave       13401 max        3862 min
Histogram: 8 0 0 0 1 7 0 0 0 4
Neighs:        456748.0 ave      939190 max        4467 min
Histogram: 8 0 0 0 0 0 2 5 1 4

Total # of neighbors = 9134955
Ave neighs/atom = 493.19485
Ave special neighs/atom = 6.2513767
Neighbor list builds = 2705
Dangerous builds = 0
Total wall time: 0:41:15
