ITEM: TIMESTEP
10000
ITEM: NUMBER OF ATOMS
3888
ITEM: BOX BOUNDS pp pp pp
-1.0000000000000000e+01 3.0000000000000000e+01
-1.0000000000000000e+01 3.0000000000000000e+01
-3.0000000000000000e+01 3.0000000000000000e+01
ITEM: ATOMS id type xs ys zs
131 2 0.130063 0.172897 0.365567
253 1 0.0291899 0.216378 0.315446
238 1 0.179106 0.224322 0.356322
25 1 0.171858 0.106952 0.26783
130 1 0.12284 0.187923 0.354122
240 2 0.156779 0.216993 0.353308
27 2 0.180041 0.111938 0.282448
26 2 0.186076 0.089382 0.26259
239 2 0.190638 0.204522 0.360924
132 2 0.0995626 0.19131 0.357053
1 1 0.0580255 0.209717 0.35738
3 2 0.0449333 0.190395 0.360902
2 2 0.0494816 0.217176 0.343332
393 2 0.16596 0.136156 0.379541
255 2 0.00534681 0.216251 0.316802
254 2 0.0332483 0.212471 0.299941
391 1 0.1442 0.142187 0.384822
123 2 0.175445 0.245109 0.380855
708 2 0.0686663 0.239317 0.378745
392 2 0.134535 0.121545 0.389682
2346 2 0.167194 0.0843536 0.361401
2100 2 0.109032 0.0785792 0.258165
2039 2 0.109723 0.139902 0.34731
2040 2 0.0861087 0.122159 0.331534
2038 1 0.0969564 0.119813 0.345668
2201 2 0.186225 0.0976588 0.323264
2344 1 0.157808 0.0813643 0.346862
1990 1 0.16802 0.0390626 0.224015
2036 2 0.0302713 0.0428111 0.348748
2037 2 0.066144 0.0404081 0.340865
2035 1 0.0495666 0.0286819 0.349306
2345 2 0.134202 0.0835269 0.349048
2233 1 0.171214 0.0154791 0.276695
2234 2 0.185779 0.021343 0.288734
1983 2 0.0658447 0.125693 0.36665
1981 1 0.0467902 0.131375 0.375526
2326 1 0.135045 0.021359 0.326809
2092 1 0.00631123 0.0875597 0.331576
2098 1 0.112856 0.0850147 0.273318
1982 2 0.0553524 0.146221 0.38666
2099 2 0.132873 0.0981066 0.272812
2327 2 0.141808 0.0434132 0.331052
2328 2 0.133581 0.00934028 0.340569
1992 2 0.178386 0.0317192 0.210496
2235 2 0.149231 0.0199678 0.282244
1991 2 0.185313 0.0507786 0.2318
2244 2 0.0953774 0.0406116 0.273967
2130 2 0.0718449 0.0214544 0.384719
2093 2 0.00348717 0.110295 0.336184
2243 2 0.10333 0.00663374 0.264198
2242 1 0.0911723 0.0172479 0.275977
2363 2 0.126329 0.0165119 0.228465
2362 1 0.105799 0.00427734 0.229273
1024 1 0.0163884 0.0752187 0.393408
1025 2 0.0286031 0.0927756 0.386252
1004 2 0.000292581 0.177404 0.334183
985 1 0.050594 0.184497 0.275763
986 2 0.0707958 0.197295 0.276343
987 2 0.0545207 0.166075 0.285602
1026 2 0.0331386 0.0595269 0.397922
3003 2 0.0849894 0.0996348 0.295319
3001 1 0.0708111 0.114479 0.303518
3002 2 0.0501059 0.102661 0.304897
22 1 0.243075 0.14637 0.335709
24 2 0.247083 0.167569 0.328807
227 2 0.251645 0.231497 0.371377
23 2 0.227271 0.135571 0.326135
226 1 0.265756 0.217191 0.380039
28 1 0.351208 0.150081 0.362545
228 2 0.288 0.223409 0.375865
194 2 0.367232 0.226474 0.28131
12 2 0.342186 0.196728 0.376736
193 1 0.356875 0.247506 0.27811
10 1 0.336383 0.217632 0.383469
11 2 0.35354 0.221413 0.394301
468 2 0.372503 0.135532 0.254296
467 2 0.376426 0.100632 0.263702
466 1 0.385054 0.122875 0.26494
29 2 0.362907 0.162827 0.351523
30 2 0.368429 0.141349 0.37197
448 1 0.395559 0.107864 0.396618
6 2 0.282451 0.134664 0.398656
2351 2 0.231615 0.174935 0.381347
2367 2 0.20258 0.0892148 0.393853
2260 1 0.217228 0.0562656 0.257348
2078 2 0.264351 0.227972 0.327747
2077 1 0.265566 0.208937 0.318113
2079 2 0.270881 0.218042 0.303792
2200 1 0.20089 0.105807 0.311887
2202 2 0.211917 0.0862486 0.306369
2352 2 0.225939 0.159021 0.358769
2350 1 0.214302 0.167529 0.371503
2262 2 0.240409 0.050631 0.258601
2011 1 0.288416 0.238946 0.276192
2106 2 0.314641 0.0857511 0.330993
2356 1 0.234361 0.0582827 0.346314
2357 2 0.226452 0.078396 0.353163
2146 1 0.280706 0.116885 0.369572
2366 2 0.214437 0.119484 0.380931
2365 1 0.204727 0.0977989 0.37903
2104 1 0.303209 0.0673853 0.324174
2358 2 0.258207 0.0601134 0.346847
2105 2 0.312235 0.0479832 0.331314
2261 2 0.205744 0.0378979 0.264127
2221 1 0.323744 0.0124151 0.346212
2132 2 0.372958 0.191341 0.234018
2009 2 0.37457 0.0293242 0.303806
2131 1 0.354367 0.176315 0.234761
2133 2 0.338579 0.185131 0.224311
2148 2 0.268011 0.122308 0.356541
2369 2 0.226415 0.0172253 0.305148
2147 2 0.303048 0.123623 0.366042
2112 2 0.336463 0.0710386 0.296338
2119 1 0.230407 0.00247184 0.373723
2045 2 0.376719 0.181319 0.301611
2046 2 0.381333 0.162955 0.279763
1989 2 0.372341 0.115933 0.3192
2044 1 0.383329 0.1846 0.286435
2110 1 0.358285 0.0706346 0.289798
1987 1 0.394833 0.113795 0.313942
1988 2 0.394091 0.121885 0.298936
2120 2 0.227614 0.0235612 0.366417
2111 2 0.372392 0.0809971 0.300676
2370 2 0.217533 0.0458417 0.320563
2008 1 0.379572 0.0075299 0.309488
2368 1 0.215464 0.0384979 0.305442
2012 2 0.311331 0.243699 0.27286
2013 2 0.280736 0.226118 0.263736
1084 1 0.365763 0.210355 0.329678
1085 2 0.386005 0.216429 0.337163
1086 2 0.355994 0.231222 0.325368
3224 2 0.316721 0.15358 0.327282
3223 1 0.328102 0.139589 0.316797
3225 2 0.312907 0.137633 0.304541
52 1 0.516388 0.0752187 0.393408
53 2 0.528603 0.0927756 0.386252
450 2 0.417291 0.109511 0.390029
157 1 0.461006 0.234905 0.31483
31 1 0.484488 0.159632 0.335952
89 2 0.476006 0.234608 0.393805
32 2 0.500293 0.177404 0.334183
13 1 0.550594 0.184497 0.275763
158 2 0.453501 0.227967 0.329255
14 2 0.570796 0.197295 0.276343
15 2 0.554521 0.166075 0.285602
33 2 0.47128 0.160322 0.322657
54 2 0.533139 0.0595269 0.397922
159 2 0.458495 0.215472 0.305672
2031 2 0.584989 0.0996348 0.295319
2029 1 0.570811 0.114479 0.303518
2030 2 0.550106 0.102661 0.304897
2005 1 0.482161 0.00543832 0.366652
2010 2 0.403009 0.00476935 0.306843
2249 2 0.425952 0.0858552 0.323833
2248 1 0.441878 0.069357 0.328394
2006 2 0.468191 0.018116 0.376467
2250 2 0.442535 0.0537657 0.3163
1225 1 0.52919 0.216378 0.315446
1339 1 0.489969 0.175291 0.383079
1101 2 0.494129 0.106937 0.306134
1099 1 0.48524 0.121486 0.294939
1100 2 0.496352 0.114895 0.281511
1245 2 0.443432 0.22736 0.364792
1104 2 0.599563 0.19131 0.357053
973 1 0.558025 0.209717 0.35738
975 2 0.544933 0.190395 0.360902
974 2 0.549482 0.217176 0.343332
1244 2 0.457807 0.193856 0.358017
1340 2 0.494743 0.160475 0.370962
1227 2 0.505347 0.216251 0.316802
1226 2 0.533248 0.212471 0.299941
1243 1 0.442493 0.210817 0.353282
1680 2 0.568666 0.239317 0.378745
1341 2 0.484065 0.160834 0.395167
1302 2 0.472118 0.00437172 0.334203
3012 2 0.586109 0.122159 0.331534
3010 1 0.596956 0.119813 0.345668
3008 2 0.530271 0.0428111 0.348748
3009 2 0.566144 0.0404081 0.340865
3007 1 0.549567 0.0286819 0.349306
3066 2 0.484032 0.0789932 0.330445
2955 2 0.565845 0.125693 0.36665
2953 1 0.54679 0.131375 0.375526
3064 1 0.506311 0.0875597 0.331576
2954 2 0.555352 0.146221 0.38666
3226 1 0.451095 0.178565 0.28649
3216 2 0.595377 0.0406116 0.273967
3102 2 0.571845 0.0214544 0.384719
3065 2 0.503487 0.110295 0.336184
3227 2 0.459064 0.156602 0.289941
2996 2 0.475791 0.087093 0.38387
3228 2 0.4277 0.175647 0.283757
2997 2 0.458644 0.0880458 0.361386
2995 1 0.457849 0.097634 0.375993
3214 1 0.591172 0.0172479 0.275977
994 1 0.743075 0.14637 0.335709
996 2 0.747083 0.167569 0.328807
1103 2 0.630063 0.172897 0.365567
1199 2 0.751645 0.231497 0.371377
995 2 0.727271 0.135571 0.326135
1210 1 0.679106 0.224322 0.356322
997 1 0.671858 0.106952 0.26783
1102 1 0.62284 0.187923 0.354122
1198 1 0.765756 0.217191 0.380039
1212 2 0.656779 0.216993 0.353308
999 2 0.680041 0.111938 0.282448
998 2 0.686076 0.089382 0.26259
1211 2 0.690638 0.204522 0.360924
1200 2 0.788 0.223409 0.375865
1365 2 0.66596 0.136156 0.379541
1363 1 0.6442 0.142187 0.384822
1095 2 0.675445 0.245109 0.380855
1364 2 0.634535 0.121545 0.389682
978 2 0.782451 0.134664 0.398656
3318 2 0.667194 0.0843536 0.361401
3072 2 0.609032 0.0785792 0.258165
3323 2 0.731615 0.174935 0.381347
3011 2 0.609723 0.139902 0.34731
3339 2 0.70258 0.0892148 0.393853
3232 1 0.717228 0.0562656 0.257348
3173 2 0.686225 0.0976588 0.323264
3050 2 0.764351 0.227972 0.327747
3049 1 0.765566 0.208937 0.318113
3051 2 0.770881 0.218042 0.303792
3172 1 0.70089 0.105807 0.311887
3174 2 0.711917 0.0862486 0.306369
3316 1 0.657808 0.0813643 0.346862
3324 2 0.725939 0.159021 0.358769
3322 1 0.714302 0.167529 0.371503
2962 1 0.66802 0.0390626 0.224015
3234 2 0.740409 0.050631 0.258601
3317 2 0.634202 0.0835269 0.349048
3205 1 0.671214 0.0154791 0.276695
3206 2 0.685779 0.021343 0.288734
2983 1 0.788416 0.238946 0.276192
3298 1 0.635045 0.021359 0.326809
3328 1 0.734361 0.0582827 0.346314
3070 1 0.612856 0.0850147 0.273318
3329 2 0.726452 0.078396 0.353163
3118 1 0.780706 0.116885 0.369572
3338 2 0.714437 0.119484 0.380931
3337 1 0.704727 0.0977989 0.37903
3071 2 0.632873 0.0981066 0.272812
3330 2 0.758207 0.0601134 0.346847
3233 2 0.705744 0.0378979 0.264127
3299 2 0.641808 0.0434132 0.331052
3300 2 0.633581 0.00934028 0.340569
2964 2 0.678386 0.0317192 0.210496
3207 2 0.649231 0.0199678 0.282244
2963 2 0.685313 0.0507786 0.2318
3120 2 0.768011 0.122308 0.356541
3341 2 0.726415 0.0172253 0.305148
3091 1 0.730407 0.00247184 0.373723
3092 2 0.727614 0.0235612 0.366417
3342 2 0.717533 0.0458417 0.320563
3215 2 0.60333 0.00663374 0.264198
3340 1 0.715464 0.0384979 0.305442
3335 2 0.626329 0.0165119 0.228465
2985 2 0.780736 0.226118 0.263736
3334 1 0.605799 0.00427734 0.229273
367 1 0.989969 0.175291 0.383079
129 2 0.994129 0.106937 0.306134
127 1 0.98524 0.121486 0.294939
128 2 0.996352 0.114895 0.281511
273 2 0.943432 0.22736 0.364792
272 2 0.957807 0.193856 0.358017
112 1 0.865763 0.210355 0.329678
368 2 0.994743 0.160475 0.370962
113 2 0.886005 0.216429 0.337163
114 2 0.855994 0.231222 0.325368
271 1 0.942493 0.210817 0.353282
369 2 0.984065 0.160834 0.395167
330 2 0.972118 0.00437172 0.334203
2094 2 0.984032 0.0789932 0.330445
2252 2 0.816721 0.15358 0.327282
2254 1 0.951095 0.178565 0.28649
2251 1 0.828102 0.139589 0.316797
2253 2 0.812907 0.137633 0.304541
2255 2 0.959064 0.156602 0.289941
2024 2 0.975791 0.087093 0.38387
2256 2 0.9277 0.175647 0.283757
2025 2 0.958644 0.0880458 0.361386
2023 1 0.957849 0.097634 0.375993
1000 1 0.851208 0.150081 0.362545
1422 2 0.917291 0.109511 0.390029
1166 2 0.867232 0.226474 0.28131
984 2 0.842186 0.196728 0.376736
1129 1 0.961006 0.234905 0.31483
1003 1 0.984488 0.159632 0.335952
1165 1 0.856875 0.247506 0.27811
1061 2 0.976006 0.234608 0.393805
982 1 0.836383 0.217632 0.383469
983 2 0.85354 0.221413 0.394301
1130 2 0.953501 0.227967 0.329255
1440 2 0.872503 0.135532 0.254296
1439 2 0.876426 0.100632 0.263702
1438 1 0.885054 0.122875 0.26494
1001 2 0.862907 0.162827 0.351523
1002 2 0.868429 0.141349 0.37197
1005 2 0.97128 0.160322 0.322657
1131 2 0.958495 0.215472 0.305672
1420 1 0.895559 0.107864 0.396618
3078 2 0.814641 0.0857511 0.330993
3076 1 0.803209 0.0673853 0.324174
3077 2 0.812235 0.0479832 0.331314
3193 1 0.823744 0.0124151 0.346212
2977 1 0.982161 0.00543832 0.366652
3104 2 0.872958 0.191341 0.234018
2981 2 0.87457 0.0293242 0.303806
3103 1 0.854367 0.176315 0.234761
3105 2 0.838579 0.185131 0.224311
3119 2 0.803048 0.123623 0.366042
3084 2 0.836463 0.0710386 0.296338
3017 2 0.876719 0.181319 0.301611
2982 2 0.903009 0.00476935 0.306843
3018 2 0.881333 0.162955 0.279763
2961 2 0.872341 0.115933 0.3192
3221 2 0.925952 0.0858552 0.323833
3016 1 0.883329 0.1846 0.286435
3220 1 0.941878 0.069357 0.328394
3082 1 0.858285 0.0706346 0.289798
2978 2 0.968191 0.018116 0.376467
2959 1 0.894833 0.113795 0.313942
2960 2 0.894091 0.121885 0.298936
3222 2 0.942535 0.0537657 0.3163
3083 2 0.872392 0.0809971 0.300676
2980 1 0.879572 0.0075299 0.309488
2984 2 0.811331 0.243699 0.27286
183 2 0.0357253 0.298045 0.268647
242 2 0.072372 0.265325 0.294987
8 2 0.146726 0.414897 0.369524
261 2 0.0502545 0.306936 0.368422
259 1 0.0594981 0.322393 0.357918
405 2 0.0816092 0.37908 0.317095
403 1 0.0805798 0.37116 0.302057
42 2 0.0323469 0.453119 0.306864
260 2 0.0697664 0.308586 0.34683
389 2 0.171527 0.284101 0.304805
241 1 0.0935273 0.25573 0.298819
388 1 0.153715 0.29681 0.311264
529 1 0.188772 0.468497 0.321335
122 2 0.186785 0.27416 0.395151
404 2 0.101727 0.377181 0.295761
181 1 0.0412294 0.289607 0.283117
390 2 0.133859 0.287779 0.304703
40 1 0.0156849 0.445545 0.317141
182 2 0.0407241 0.308846 0.292598
420 2 0.105421 0.491193 0.215918
527 2 0.159954 0.435646 0.268316
528 2 0.178764 0.468303 0.266
121 1 0.167853 0.260246 0.392127
526 1 0.181408 0.444619 0.264553
530 2 0.195339 0.460182 0.33564
613 1 0.0176392 0.274677 0.235903
7 1 0.126498 0.40739 0.376425
243 2 0.0929795 0.253846 0.314719
417 2 0.0353788 0.332753 0.332904
531 2 0.172381 0.485253 0.324547
415 1 0.0270332 0.333407 0.317959
614 2 0.0320501 0.255593 0.235308
416 2 0.0401694 0.350241 0.310757
9 2 0.115044 0.395368 0.364937
634 1 0.166297 0.462745 0.392322
706 1 0.0685243 0.261538 0.384664
707 2 0.0810695 0.259962 0.398208
231 2 0.0982853 0.374215 0.392432
2054 2 0.134894 0.484491 0.376311
2055 2 0.106261 0.46379 0.367266
2379 2 0.125778 0.429862 0.304618
2163 2 0.0772595 0.363683 0.349511
2149 1 0.106535 0.274344 0.343846
2378 2 0.162915 0.436585 0.306515
2162 2 0.0637802 0.399046 0.349248
2161 1 0.0823134 0.385776 0.344391
2053 1 0.117761 0.484539 0.365173
2377 1 0.147104 0.419062 0.303881
2150 2 0.107668 0.271038 0.359628
2151 2 0.128433 0.281851 0.339803
1114 1 0.188401 0.355947 0.320783
1116 2 0.175635 0.335712 0.32046
1115 2 0.173026 0.372909 0.316138
1042 1 0.0810302 0.467013 0.308368
1087 1 0.0511687 0.453007 0.353906
1088 2 0.0513373 0.476937 0.353926
1079 2 0.036454 0.460936 0.385307
1089 2 0.0367832 0.447132 0.341774
1043 2 0.0772507 0.490174 0.305245
1467 2 0.00604837 0.414686 0.273091
1044 2 0.0852478 0.466265 0.324064
1187 2 0.036027 0.341648 0.397473
279 2 0.33909 0.499689 0.337388
198 2 0.254092 0.462442 0.295231
19 1 0.283194 0.333182 0.348005
224 2 0.213394 0.32101 0.379918
20 2 0.282557 0.328229 0.332403
234 2 0.203663 0.40953 0.375779
138 2 0.296181 0.297749 0.308775
196 1 0.244254 0.466256 0.280912
491 2 0.242989 0.344726 0.354955
177 2 0.253152 0.496425 0.370835
136 1 0.275299 0.299691 0.301092
151 1 0.245429 0.265105 0.347343
153 2 0.256814 0.286104 0.346386
492 2 0.208264 0.354044 0.347075
518 2 0.306394 0.471704 0.39503
152 2 0.223492 0.269583 0.341711
484 1 0.346425 0.360825 0.367161
179 2 0.361308 0.340842 0.338622
517 1 0.298476 0.478412 0.380655
486 2 0.344498 0.339934 0.374834
223 1 0.211506 0.311238 0.394426
82 1 0.339872 0.448105 0.293476
282 2 0.275004 0.424967 0.347019
232 1 0.201606 0.425831 0.364181
137 2 0.27587 0.282296 0.290143
280 1 0.26831 0.422975 0.362278
17 2 0.348338 0.289869 0.32691
281 2 0.244476 0.421016 0.361699
21 2 0.297107 0.352581 0.349105
485 2 0.352977 0.376419 0.378446
490 1 0.221716 0.352325 0.360219
519 2 0.290142 0.458266 0.374078
119 2 0.23225 0.363406 0.3054
521 2 0.287801 0.375822 0.394399
18 2 0.340214 0.270465 0.305935
84 2 0.326342 0.449294 0.280342
120 2 0.260972 0.346806 0.293254
118 1 0.254887 0.366985 0.300809
233 2 0.200534 0.446785 0.371853
83 2 0.353457 0.467786 0.292907
180 2 0.393102 0.32057 0.340793
195 2 0.372371 0.258673 0.268499
16 1 0.332077 0.275063 0.320621
197 2 0.224615 0.452583 0.280834
174 2 0.399698 0.331255 0.303037
178 1 0.374894 0.32495 0.330862
225 2 0.234034 0.306155 0.398605
278 2 0.31674 0.497343 0.35769
2043 2 0.34155 0.272765 0.374634
2247 2 0.396288 0.296887 0.266278
2042 2 0.325441 0.300506 0.361244
2041 1 0.329866 0.293514 0.376214
1029 2 0.275555 0.465462 0.263758
1031 2 0.300385 0.442698 0.310817
1032 2 0.277993 0.412191 0.31124
1030 1 0.279933 0.434425 0.316996
1027 1 0.294094 0.463545 0.253752
1028 2 0.285752 0.471669 0.239814
51 2 0.293612 0.295391 0.397017
286 1 0.437062 0.424934 0.388454
70 1 0.58103 0.467013 0.308368
115 1 0.551169 0.453007 0.353906
116 2 0.551337 0.476937 0.353926
172 1 0.411087 0.322145 0.290389
107 2 0.536454 0.460936 0.385307
117 2 0.536783 0.447132 0.341774
63 2 0.477486 0.482615 0.370296
71 2 0.577251 0.490174 0.305245
494 2 0.469321 0.406329 0.275556
173 2 0.429082 0.309433 0.296615
88 1 0.463347 0.252626 0.387559
493 1 0.489922 0.406875 0.283665
495 2 0.506048 0.414686 0.273091
288 2 0.420106 0.424833 0.377197
72 2 0.585248 0.466265 0.324064
90 2 0.479795 0.267333 0.381383
287 2 0.439029 0.402035 0.392897
215 2 0.536027 0.341648 0.397473
2190 2 0.400325 0.450182 0.397863
2245 1 0.400297 0.279306 0.25579
2246 2 0.423634 0.274489 0.25726
1246 1 0.463441 0.362965 0.326811
1155 2 0.535725 0.298045 0.268647
1214 2 0.572372 0.265325 0.294987
1233 2 0.550254 0.306936 0.368422
1231 1 0.559498 0.322393 0.357918
1377 2 0.581609 0.37908 0.317095
1375 1 0.58058 0.37116 0.302057
1014 2 0.532347 0.453119 0.306864
1232 2 0.569766 0.308586 0.34683
1213 1 0.593527 0.25573 0.298819
1153 1 0.541229 0.289607 0.283117
1012 1 0.515685 0.445545 0.317141
1154 2 0.540724 0.308846 0.292598
1247 2 0.464738 0.380075 0.315692
1013 2 0.499918 0.433694 0.308107
1248 2 0.484577 0.351807 0.326014
1587 2 0.497968 0.266825 0.243328
1585 1 0.517639 0.274677 0.235903
1050 2 0.430148 0.343527 0.37437
1215 2 0.592979 0.253846 0.314719
1389 2 0.535379 0.332753 0.332904
1387 1 0.527033 0.333407 0.317959
1586 2 0.53205 0.255593 0.235308
1045 1 0.472854 0.268727 0.280361
1046 2 0.468076 0.259369 0.294694
1047 2 0.491427 0.283329 0.282897
1048 1 0.426933 0.332784 0.360277
1049 2 0.43617 0.348045 0.349643
1388 2 0.540169 0.350241 0.310757
1678 1 0.568524 0.261538 0.384664
1679 2 0.58107 0.259962 0.398208
1203 2 0.598285 0.374215 0.392432
3135 2 0.577259 0.363683 0.349511
3134 2 0.56378 0.399046 0.349248
3133 1 0.582313 0.385776 0.344391
3245 2 0.483391 0.483869 0.31437
3244 1 0.464444 0.495457 0.32031
142 1 0.688401 0.355947 0.320783
144 2 0.675635 0.335712 0.32046
57 2 0.775555 0.465462 0.263758
143 2 0.673026 0.372909 0.316138
60 2 0.777993 0.412191 0.31124
58 1 0.779933 0.434425 0.316996
55 1 0.794094 0.463545 0.253752
56 2 0.785752 0.471669 0.239814
980 2 0.646726 0.414897 0.369524
1170 2 0.754092 0.462442 0.295231
991 1 0.783194 0.333182 0.348005
1196 2 0.713394 0.32101 0.379918
1361 2 0.671527 0.284101 0.304805
1360 1 0.653715 0.29681 0.311264
1501 1 0.688772 0.468497 0.321335
1094 2 0.686785 0.27416 0.395151
992 2 0.782557 0.328229 0.332403
1206 2 0.703663 0.40953 0.375779
1376 2 0.601727 0.377181 0.295761
1362 2 0.633859 0.287779 0.304703
1110 2 0.796181 0.297749 0.308775
1168 1 0.744254 0.466256 0.280912
1463 2 0.742989 0.344726 0.354955
1392 2 0.605421 0.491193 0.215918
1499 2 0.659954 0.435646 0.268316
1149 2 0.753152 0.496425 0.370835
1500 2 0.678764 0.468303 0.266
1108 1 0.775299 0.299691 0.301092
1093 1 0.667853 0.260246 0.392127
1498 1 0.681408 0.444619 0.264553
1502 2 0.695339 0.460182 0.33564
1123 1 0.745429 0.265105 0.347343
1125 2 0.756814 0.286104 0.346386
1464 2 0.708264 0.354044 0.347075
979 1 0.626498 0.40739 0.376425
1124 2 0.723492 0.269583 0.341711
1503 2 0.672381 0.485253 0.324547
1489 1 0.798476 0.478412 0.380655
1195 1 0.711506 0.311238 0.394426
1254 2 0.775004 0.424967 0.347019
1204 1 0.701606 0.425831 0.364181
1109 2 0.77587 0.282296 0.290143
1252 1 0.76831 0.422975 0.362278
1253 2 0.744476 0.421016 0.361699
993 2 0.797107 0.352581 0.349105
1462 1 0.721716 0.352325 0.360219
1491 2 0.790142 0.458266 0.374078
1091 2 0.73225 0.363406 0.3054
1493 2 0.787801 0.375822 0.394399
1092 2 0.760972 0.346806 0.293254
1090 1 0.754887 0.366985 0.300809
1205 2 0.700534 0.446785 0.371853
1169 2 0.724615 0.452583 0.280834
981 2 0.615044 0.395368 0.364937
1606 1 0.666297 0.462745 0.392322
1197 2 0.734034 0.306155 0.398605
3026 2 0.634894 0.484491 0.376311
3027 2 0.606261 0.46379 0.367266
3351 2 0.625778 0.429862 0.304618
3121 1 0.606535 0.274344 0.343846
3350 2 0.662915 0.436585 0.306515
3025 1 0.617761 0.484539 0.365173
3349 1 0.647104 0.419062 0.303881
3122 2 0.607668 0.271038 0.359628
3123 2 0.628433 0.281851 0.339803
1023 2 0.793612 0.295391 0.397017
1251 2 0.83909 0.499689 0.337388
274 1 0.963441 0.362965 0.326811
275 2 0.964738 0.380075 0.315692
41 2 0.999918 0.433694 0.308107
276 2 0.984577 0.351807 0.326014
615 2 0.997968 0.266825 0.243328
78 2 0.930148 0.343527 0.37437
59 2 0.800385 0.442698 0.310817
73 1 0.972854 0.268727 0.280361
74 2 0.968076 0.259369 0.294694
75 2 0.991427 0.283329 0.282897
76 1 0.926933 0.332784 0.360277
77 2 0.93617 0.348045 0.349643
2273 2 0.983391 0.483869 0.31437
2272 1 0.964444 0.495457 0.32031
1258 1 0.937062 0.424934 0.388454
1144 1 0.911087 0.322145 0.290389
1490 2 0.806394 0.471704 0.39503
1456 1 0.846425 0.360825 0.367161
1151 2 0.861308 0.340842 0.338622
1458 2 0.844498 0.339934 0.374834
1035 2 0.977486 0.482615 0.370296
1054 1 0.839872 0.448105 0.293476
1466 2 0.969321 0.406329 0.275556
989 2 0.848338 0.289869 0.32691
1145 2 0.929082 0.309433 0.296615
1060 1 0.963347 0.252626 0.387559
1457 2 0.852977 0.376419 0.378446
1465 1 0.989922 0.406875 0.283665
990 2 0.840214 0.270465 0.305935
1056 2 0.826342 0.449294 0.280342
1055 2 0.853457 0.467786 0.292907
1152 2 0.893102 0.32057 0.340793
1167 2 0.872371 0.258673 0.268499
988 1 0.832077 0.275063 0.320621
1146 2 0.899698 0.331255 0.303037
1260 2 0.920106 0.424833 0.377197
1150 1 0.874894 0.32495 0.330862
1062 2 0.979795 0.267333 0.381383
1259 2 0.939029 0.402035 0.392897
1250 2 0.81674 0.497343 0.35769
3162 2 0.900325 0.450182 0.397863
3015 2 0.84155 0.272765 0.374634
3219 2 0.896288 0.296887 0.266278
3217 1 0.900297 0.279306 0.25579
3014 2 0.825441 0.300506 0.361244
3013 1 0.829866 0.293514 0.376214
3218 2 0.923634 0.274489 0.25726
566 2 0.168774 0.0712629 0.420909
567 2 0.1987 0.0887478 0.431045
511 1 0.0952808 0.211944 0.442126
364 1 0.00794959 0.213261 0.433902
583 1 0.0460264 0.159239 0.419523
833 2 0.0468862 0.138705 0.539665
441 2 0.0937836 0.0379647 0.446076
439 1 0.110551 0.0513518 0.45314
672 2 0.057153 0.106734 0.478613
440 2 0.0990789 0.0713353 0.457444
834 2 0.0778329 0.160461 0.540459
832 1 0.070386 0.137954 0.542635
512 2 0.117493 0.220846 0.442191
361 1 0.175976 0.222008 0.556242
850 1 0.100196 0.200049 0.548665
513 2 0.0952438 0.195717 0.453851
670 1 0.0804747 0.108984 0.481857
607 1 0.126166 0.0772194 0.40446
837 2 0.144346 0.134192 0.593318
802 1 0.0840388 0.086731 0.571409
365 2 0.0252922 0.229177 0.436773
584 2 0.0556735 0.168374 0.432792
675 2 0.0459276 0.0624022 0.563329
852 2 0.111743 0.20414 0.562369
835 1 0.161307 0.144532 0.584422
565 1 0.192548 0.0732073 0.419628
609 2 0.10707 0.0628944 0.403347
325 1 0.170006 0.231171 0.432459
326 2 0.161691 0.240903 0.418979
892 1 0.17943 0.164419 0.48018
671 2 0.0836803 0.0962692 0.495203
674 2 0.03563 0.0481205 0.540994
608 2 0.12149 0.0912865 0.416984
363 2 0.174423 0.198305 0.558173
894 2 0.171178 0.154891 0.493741
893 2 0.163922 0.157197 0.469025
585 2 0.0258671 0.148682 0.424459
673 1 0.0268641 0.0546591 0.555184
590 2 0.196257 0.192928 0.432557
334 1 0.179122 0.0575947 0.473882
851 2 0.107756 0.21737 0.538879
804 2 0.107941 0.0856214 0.571603
366 2 0.0183875 0.196538 0.424858
335 2 0.198237 0.0681868 0.467383
788 2 0.163134 0.0548282 0.547245
803 2 0.0790048 0.103359 0.560438
787 1 0.15396 0.0479652 0.561251
347 2 0.0176235 0.0118254 0.453263
346 1 0.00442953 0.0267644 0.462092
789 2 0.172059 0.0502562 0.571575
601 1 0.189088 0.121992 0.545469
336 2 0.161427 0.0616159 0.463482
656 2 0.128317 0.00937206 0.556813
602 2 0.178865 0.125696 0.559681
362 2 0.168501 0.225817 0.541301
836 2 0.169324 0.162626 0.59339
2604 2 0.144373 0.00695001 0.509334
2603 2 0.166479 0.0358119 0.502318
2241 2 0.130049 0.145364 0.425558
2129 2 0.0554783 0.00744113 0.405463
2128 1 0.0698653 0.0250161 0.40044
2239 1 0.142084 0.133785 0.436984
2240 2 0.164542 0.14181 0.435669
2515 1 0.119231 0.226498 0.595832
2690 2 0.197376 0.00505499 0.467399
2602 1 0.150235 0.0294047 0.513226
1006 1 0.0692204 0.176957 0.496052
1008 2 0.0487109 0.175072 0.504175
1671 2 0.0449757 0.213094 0.552754
1669 1 0.021699 0.216282 0.549722
1728 2 0.012451 0.0937724 0.54735
1670 2 0.0199782 0.214774 0.533842
1007 2 0.0731708 0.154954 0.49036
1726 1 0.00662966 0.114255 0.540071
1599 2 0.082463 0.109948 0.59948
3777 2 0.10452 0.0455998 0.512762
3544 1 0.0997229 0.23813 0.508736
3545 2 0.0798929 0.225753 0.505322
3776 2 0.0943618 0.0753912 0.526773
3775 1 0.0853317 0.0573277 0.518215
3085 1 0.014984 0.101408 0.469266
3087 2 0.0166169 0.0843951 0.458099
509 2 0.159537 0.247483 0.488753
327 2 0.169044 0.248909 0.443148
842 2 0.257526 0.0691726 0.516775
449 2 0.396056 0.087277 0.404744
841 1 0.241656 0.0571356 0.507933
124 1 0.397517 0.158211 0.572003
843 2 0.244031 0.0343734 0.512595
649 1 0.238019 0.173335 0.523929
639 2 0.24104 0.183559 0.560005
591 2 0.217895 0.168519 0.445353
351 2 0.227102 0.0104303 0.401903
638 2 0.221665 0.213955 0.567696
896 2 0.244249 0.00813618 0.589811
651 2 0.237262 0.190264 0.512665
696 2 0.280377 0.148368 0.524192
960 2 0.27874 0.0078788 0.532245
622 1 0.318186 0.236212 0.53671
248 2 0.39124 0.179931 0.506359
357 2 0.39731 0.0235272 0.416474
5 2 0.2636 0.141773 0.420016
356 2 0.362686 0.0270989 0.406566
263 2 0.315565 0.233184 0.499593
603 2 0.210943 0.113735 0.548923
694 1 0.293503 0.128521 0.525886
695 2 0.31513 0.136425 0.530229
650 2 0.216619 0.162694 0.523125
4 1 0.28538 0.143074 0.413464
349 1 0.218872 0.0115429 0.416865
923 2 0.224823 0.0598554 0.568301
350 2 0.205286 0.0312371 0.417157
922 1 0.21578 0.0427298 0.577672
693 2 0.241883 0.140475 0.47262
691 1 0.249323 0.161111 0.466245
355 1 0.374824 0.015673 0.418012
589 1 0.205529 0.170898 0.431788
924 2 0.221996 0.0492587 0.59245
537 2 0.25335 0.232786 0.511523
950 2 0.323784 0.114487 0.503824
637 1 0.241612 0.201464 0.570582
731 2 0.383383 0.187485 0.592585
536 2 0.233599 0.235361 0.490068
269 2 0.395989 0.0688798 0.455777
535 1 0.250394 0.222254 0.497335
941 2 0.316499 0.158751 0.457713
498 2 0.3303 0.0734151 0.425345
496 1 0.320003 0.0751414 0.41099
823 1 0.355743 0.154116 0.533598
824 2 0.371733 0.155668 0.545421
940 1 0.316177 0.16161 0.473551
825 2 0.367984 0.144767 0.521389
692 2 0.241294 0.177923 0.476257
262 1 0.330711 0.227145 0.487917
497 2 0.310446 0.0970776 0.410764
942 2 0.293051 0.159962 0.477503
624 2 0.330396 0.216946 0.541535
264 2 0.326361 0.20395 0.485276
951 2 0.34963 0.119937 0.485754
125 2 0.394356 0.134493 0.57179
826 1 0.399565 0.0940724 0.559517
729 2 0.39942 0.144095 0.441287
949 1 0.343676 0.105032 0.497586
827 2 0.380987 0.0809594 0.554548
247 1 0.399921 0.161389 0.4981
2484 2 0.348093 0.0677206 0.467058
2152 1 0.27012 0.226588 0.425978
2483 2 0.354127 0.0408076 0.44978
2155 1 0.263992 0.0431626 0.439026
2154 2 0.260885 0.234386 0.412209
2156 2 0.277703 0.056774 0.429612
2153 2 0.268425 0.202753 0.425118
2819 2 0.281453 0.19741 0.594661
2136 2 0.346656 0.160488 0.415234
2157 2 0.250419 0.0305648 0.428921
2258 2 0.247818 0.0699984 0.4578
2257 1 0.23881 0.0880937 0.466338
2482 1 0.348251 0.0638911 0.451311
2134 1 0.365603 0.152504 0.423396
2135 2 0.37593 0.136618 0.413652
2259 2 0.234222 0.0785536 0.480646
2588 2 0.392819 0.00110697 0.58927
1223 2 0.26422 0.109344 0.544263
1222 1 0.251828 0.0950592 0.554038
1224 2 0.255391 0.104285 0.568565
1834 1 0.252197 0.141192 0.599421
1603 1 0.32671 0.102557 0.570698
1604 2 0.328475 0.105709 0.586469
1874 2 0.379545 0.0369338 0.586429
1605 2 0.318385 0.123429 0.565212
3439 1 0.391243 0.221797 0.516897
3441 2 0.367526 0.222709 0.514863
3440 2 0.399071 0.243161 0.511955
1836 2 0.276004 0.138976 0.598772
375 2 0.432398 0.181818 0.433553
809 2 0.490899 0.00450173 0.578318
342 2 0.465753 0.149413 0.58603
373 1 0.43925 0.204735 0.433077
34 1 0.56922 0.176957 0.496052
341 2 0.486491 0.174449 0.57311
249 2 0.415843 0.151267 0.507913
36 2 0.548711 0.175072 0.504175
374 2 0.462823 0.203827 0.430397
755 2 0.496967 0.12772 0.551579
728 2 0.412443 0.147592 0.464863
268 1 0.418563 0.0734929 0.451468
699 2 0.544976 0.213094 0.552754
697 1 0.521699 0.216282 0.549722
756 2 0.512451 0.0937724 0.54735
612 2 0.436097 0.0975836 0.511576
698 2 0.519978 0.214774 0.533842
828 2 0.412142 0.0984975 0.546269
126 2 0.417939 0.161704 0.564021
611 2 0.459422 0.11912 0.525313
35 2 0.573171 0.154954 0.49036
610 1 0.436344 0.116263 0.521546
754 1 0.50663 0.114255 0.540071
340 1 0.472274 0.155412 0.57121
727 1 0.419132 0.141279 0.450135
270 2 0.420684 0.0972328 0.452893
627 2 0.582463 0.109948 0.59948
2572 1 0.599723 0.23813 0.508736
2573 2 0.579893 0.225753 0.505322
2268 2 0.459479 0.0137291 0.420697
2267 2 0.444446 0.0445535 0.43137
2804 2 0.594362 0.0753912 0.526773
2803 1 0.585332 0.0573277 0.518215
2113 1 0.514984 0.101408 0.469266
2266 1 0.444047 0.0315576 0.417977
2115 2 0.516617 0.0843951 0.458099
2048 2 0.444717 0.0533227 0.478188
2047 1 0.447119 0.053703 0.494059
2114 2 0.497933 0.0935837 0.47917
2049 2 0.442157 0.0313297 0.498652
1444 1 0.492703 0.196424 0.50702
1445 2 0.48584 0.203787 0.492547
1446 2 0.479661 0.176779 0.509736
1136 2 0.468181 0.124975 0.432564
1483 1 0.595281 0.211944 0.442126
1336 1 0.50795 0.213261 0.433902
1555 1 0.546026 0.159239 0.419523
1805 2 0.546886 0.138705 0.539665
1413 2 0.593784 0.0379647 0.446076
1135 1 0.481378 0.132425 0.420218
1644 2 0.557153 0.106734 0.478613
1412 2 0.599079 0.0713353 0.457444
1806 2 0.577833 0.160461 0.540459
1804 1 0.570386 0.137954 0.542635
1485 2 0.595244 0.195717 0.453851
1642 1 0.580475 0.108984 0.481857
1774 1 0.584039 0.086731 0.571409
1337 2 0.525292 0.229177 0.436773
1556 2 0.555673 0.168374 0.432792
1647 2 0.545928 0.0624022 0.563329
1320 2 0.499403 0.0143537 0.475314
1643 2 0.58368 0.0962692 0.495203
1646 2 0.53563 0.0481205 0.540994
1137 2 0.488776 0.112278 0.413161
1557 2 0.525867 0.148682 0.424459
1645 1 0.526864 0.0546591 0.555184
1338 2 0.518387 0.196538 0.424858
1425 2 0.41345 0.237533 0.421671
1775 2 0.579005 0.103359 0.560438
1319 2 0.517623 0.0118254 0.453263
1318 1 0.50443 0.0267644 0.462092
1661 2 0.4462 0.0394045 0.594446
1660 1 0.446582 0.033699 0.578954
1662 2 0.448093 0.0547294 0.571409
3101 2 0.555478 0.00744113 0.405463
3100 1 0.569865 0.0250161 0.40044
3313 1 0.454264 0.229365 0.474837
3314 2 0.435169 0.235915 0.483403
3315 2 0.446106 0.227675 0.459881
251 2 0.76422 0.109344 0.544263
250 1 0.751828 0.0950592 0.554038
252 2 0.755391 0.104285 0.568565
862 1 0.752197 0.141192 0.599421
2805 2 0.60452 0.0455998 0.512762
1538 2 0.668774 0.0712629 0.420909
1539 2 0.6987 0.0887478 0.431045
1411 1 0.610551 0.0513518 0.45314
1484 2 0.617493 0.220846 0.442191
1333 1 0.675976 0.222008 0.556242