ITEM: TIMESTEP
0
ITEM: NUMBER OF ATOMS
272
ITEM: BOX BOUNDS pp pp pp
-2.7199999999999999e+01 2.7199999999999999e+01
-2.7199999999999999e+01 2.7199999999999999e+01
-2.7199999999999999e+01 2.7199999999999999e+01
ITEM: ATOMS id type xs ys zs
217 7 0.639122 0.661875 0.40475
205 9 0.634479 0.650507 0.416506
206 4 0.619077 0.695679 0.418281
187 4 0.334814 0.306146 0.43968
207 7 0.410488 0.286899 0.430939
1 3 0.34888 0.313486 0.450343
2 3 0.374081 0.309198 0.445135
4 13 0.417134 0.31414 0.452137
171 4 0.377031 0.28981 0.439811
172 9 0.422186 0.291523 0.442014
3 3 0.392554 0.321696 0.456931
52 13 0.33255 0.410574 0.489378
188 4 0.326115 0.343885 0.46258
191 4 0.321846 0.371909 0.484497
192 9 0.311249 0.415925 0.502119
214 7 0.311174 0.42841 0.51455
35 3 0.337387 0.384639 0.487154
36 3 0.359798 0.376854 0.478474
38 3 0.404412 0.383997 0.483293
37 3 0.37965 0.391597 0.489141
39 3 0.423809 0.398134 0.494283
18 3 0.344623 0.339077 0.457819
53 3 0.352055 0.427436 0.493916
54 3 0.37538 0.415795 0.49756
56 3 0.420679 0.423238 0.500885
19 3 0.363659 0.352666 0.47003
20 3 0.388572 0.346198 0.463931
21 3 0.408291 0.358728 0.475064
6 3 0.46105 0.318935 0.459479
173 4 0.464409 0.299533 0.453853
5 3 0.436798 0.326756 0.463861
7 3 0.479226 0.327483 0.476519
261 7 0.478443 0.339227 0.521191
23 3 0.451406 0.363387 0.485774
24 3 0.475799 0.35313 0.483497
25 5 0.494486 0.364418 0.50054
40 3 0.447684 0.388986 0.492187
41 3 0.466556 0.403189 0.503978
42 3 0.491841 0.392583 0.502846
260 6 0.489835 0.352195 0.523068
58 3 0.462608 0.428394 0.509057
22 3 0.432795 0.350516 0.472618
175 4 0.553152 0.313198 0.479082
174 9 0.509415 0.299901 0.456739
10 3 0.547871 0.329341 0.469714
8 13 0.504409 0.319065 0.473081
208 7 0.525313 0.299413 0.451294
9 3 0.524642 0.333083 0.480836
11 5 0.568655 0.347847 0.473593
248 6 0.566707 0.363088 0.452957
27 5 0.540739 0.367262 0.50727
28 3 0.566905 0.360005 0.499022
44 3 0.537562 0.39508 0.513676
45 5 0.557901 0.411999 0.505737
224 6 0.558327 0.411765 0.480032
225 7 0.541158 0.411559 0.475719
236 6 0.540568 0.352394 0.528365
257 7 0.537947 0.371725 0.46317
256 6 0.522308 0.3759 0.469079
26 5 0.520297 0.359315 0.488895
237 7 0.523756 0.347454 0.532118
43 5 0.510377 0.405118 0.521084
234 6 0.505688 0.395848 0.544087
255 7 0.502043 0.420125 0.553079
235 7 0.500796 0.379053 0.542854
209 7 0.627574 0.320415 0.444443
176 4 0.595997 0.31851 0.479608
177 9 0.64119 0.324151 0.453594
12 3 0.594622 0.337577 0.471101
14 13 0.638207 0.346081 0.466576
15 3 0.658568 0.361963 0.473203
13 3 0.615577 0.351667 0.478866
249 7 0.582642 0.3693 0.449371
29 5 0.589567 0.374542 0.509214
30 3 0.610694 0.374027 0.491401
31 3 0.631629 0.388659 0.497057
32 3 0.656182 0.381326 0.490383
46 3 0.582786 0.401401 0.513343
47 3 0.602624 0.419385 0.509832
48 5 0.627426 0.409433 0.517094
49 3 0.648809 0.427803 0.512172
226 6 0.626821 0.402358 0.541946
227 7 0.625216 0.384956 0.540898
240 6 0.596776 0.362806 0.53196
241 7 0.581975 0.362433 0.541981
219 7 0.663495 0.412689 0.548703
17 3 0.701323 0.361008 0.481858
218 6 0.677903 0.407939 0.53853
178 4 0.684301 0.335274 0.458154
33 3 0.677453 0.396068 0.495851
34 13 0.700134 0.385282 0.490983
50 5 0.674734 0.416643 0.514814
16 3 0.682469 0.35308 0.46654
189 4 0.719169 0.353222 0.475578
213 7 0.718303 0.398295 0.518878
190 9 0.720974 0.390505 0.503306
196 4 0.304733 0.493891 0.502795
69 3 0.326889 0.465188 0.492947
195 4 0.309349 0.455298 0.488871
86 3 0.321262 0.485648 0.508193
88 3 0.366201 0.492793 0.510039
90 3 0.409175 0.498719 0.508732
55 3 0.395752 0.432252 0.498203
70 3 0.347797 0.452835 0.501004
72 3 0.392934 0.457226 0.505885
71 3 0.36888 0.467807 0.508012
73 3 0.412831 0.474016 0.502851
103 3 0.315603 0.53561 0.520679
120 3 0.312767 0.561741 0.517032
199 4 0.298713 0.526541 0.517981
200 4 0.294603 0.569149 0.519853
89 3 0.386429 0.507264 0.516601
104 3 0.339108 0.525668 0.517717
105 3 0.35892 0.54154 0.524
106 3 0.382113 0.533265 0.519342
107 3 0.402815 0.548077 0.526565
108 3 0.426399 0.538924 0.516822
122 3 0.354959 0.567232 0.524363
87 3 0.340827 0.500782 0.515425
59 3 0.48318 0.444574 0.509434
76 3 0.479801 0.470211 0.508599
75 3 0.457036 0.479821 0.501133
74 3 0.43684 0.464506 0.503826
57 3 0.440446 0.43917 0.501982
91 3 0.429901 0.51421 0.51252
92 3 0.454095 0.504757 0.505247
93 3 0.474749 0.519675 0.510289
109 3 0.447444 0.553457 0.521431
110 3 0.470592 0.545487 0.513314
111 3 0.490678 0.559497 0.519787
94 3 0.498103 0.510949 0.505989
61 5 0.528387 0.448834 0.509667
62 5 0.553638 0.437635 0.517416
78 5 0.524037 0.476298 0.517199
79 3 0.546719 0.491337 0.509188
228 6 0.556442 0.43638 0.542092
229 7 0.553692 0.452121 0.548941
250 6 0.524558 0.446987 0.485176
262 6 0.522507 0.481499 0.542737
251 7 0.536873 0.457415 0.476361
263 7 0.512288 0.469184 0.550362
60 5 0.50688 0.434272 0.521628
254 6 0.503203 0.43755 0.547965
77 3 0.500737 0.485527 0.50592
95 3 0.51934 0.526428 0.509857
96 3 0.543061 0.517299 0.506331
97 3 0.563909 0.532581 0.507775
112 3 0.515847 0.551872 0.512068
113 3 0.536139 0.566698 0.51419
114 3 0.558711 0.557512 0.504569
7125 1 0.548927 0.51966 0.568373
7168 2 0.548113 0.553319 0.569255
7126 2 0.535 0.511068 0.561906
7127 2 0.562773 0.512162 0.56052
63 5 0.573903 0.4559 0.506342
64 5 0.600173 0.446282 0.513454
65 3 0.618967 0.459023 0.49685
66 5 0.645986 0.451063 0.496169
67 3 0.661543 0.471393 0.509106
80 5 0.572055 0.482108 0.514237
81 3 0.593031 0.496755 0.50505
82 3 0.613571 0.485289 0.493503
84 5 0.656224 0.49905 0.506941
220 6 0.652388 0.446398 0.471105
221 7 0.646298 0.460304 0.462658
222 6 0.609942 0.45108 0.538685
223 7 0.620026 0.437614 0.541545
230 6 0.571815 0.45788 0.479946
231 7 0.576161 0.441269 0.476012
232 6 0.575068 0.485349 0.5401
242 6 0.641203 0.492309 0.463811
233 7 0.587159 0.473042 0.54558
51 3 0.693418 0.438779 0.514608
7165 2 0.658478 0.476157 0.55635
68 3 0.68574 0.46416 0.512515
194 4 0.696615 0.47615 0.524022
193 4 0.706402 0.440152 0.529056
7164 1 0.655024 0.460621 0.563853
98 3 0.587551 0.522605 0.500134
99 5 0.610581 0.539034 0.503105
100 3 0.627792 0.528355 0.483649
116 3 0.603191 0.566312 0.49583
118 3 0.637532 0.569045 0.469506
244 6 0.619448 0.539225 0.527615
245 7 0.615652 0.553954 0.536387
252 6 0.595882 0.569234 0.449791
101 5 0.648767 0.543791 0.472243
246 6 0.656013 0.535247 0.448912
239 7 0.637374 0.514003 0.533565
243 7 0.644148 0.507167 0.454947
247 7 0.648993 0.546997 0.439232
238 6 0.651859 0.504224 0.53181
85 3 0.677428 0.516595 0.499222
102 13 0.670479 0.540389 0.489595
198 9 0.691689 0.552695 0.482037
215 7 0.694534 0.545228 0.466129
197 4 0.692617 0.517534 0.512222
83 5 0.635729 0.501593 0.487973
137 13 0.309194 0.617905 0.509237
203 9 0.287824 0.607028 0.500622
216 7 0.291494 0.591242 0.494577
154 3 0.304045 0.641647 0.517533
204 4 0.290584 0.6542 0.509562
138 3 0.326934 0.603748 0.523066
155 3 0.322187 0.656544 0.53048
121 3 0.332406 0.578085 0.517704
123 3 0.375742 0.582891 0.525079
124 3 0.399423 0.573286 0.529776
125 3 0.420255 0.589023 0.529015
139 3 0.347946 0.617992 0.531925
140 3 0.372153 0.607519 0.532125
141 3 0.392518 0.623845 0.533301
142 3 0.417185 0.614659 0.535203
156 3 0.345676 0.644881 0.531733
158 3 0.388613 0.648454 0.542166
157 13 0.364643 0.659103 0.542727
159 3 0.408916 0.664738 0.539531
179 4 0.323141 0.676949 0.527094
180 9 0.361808 0.683931 0.546526
181 4 0.405686 0.682981 0.54317
210 7 0.346383 0.689758 0.541088
211 7 0.446935 0.693508 0.565367
126 3 0.444019 0.578189 0.528281
127 3 0.464269 0.594416 0.525275
143 3 0.437124 0.630983 0.532956
144 3 0.46113 0.620099 0.53284
145 3 0.48071 0.637038 0.528802
128 3 0.4885 0.584036 0.526645
160 3 0.433594 0.656627 0.539873
162 3 0.478617 0.661618 0.53643
163 3 0.498911 0.677328 0.531926
183 4 0.494445 0.697461 0.53164
182 9 0.452487 0.695905 0.549141
161 13 0.454681 0.673172 0.538587
129 3 0.507808 0.601533 0.522585
130 3 0.531923 0.592093 0.518147
131 3 0.551517 0.608745 0.512444
146 3 0.50421 0.626521 0.52613
147 3 0.523462 0.643229 0.520333
148 3 0.5457 0.634471 0.509202
149 3 0.56313 0.649576 0.499152
259 7 0.571144 0.577767 0.543781
185 4 0.570889 0.708521 0.481641
184 9 0.530285 0.707871 0.503323
166 3 0.556221 0.674148 0.494785
164 3 0.518455 0.668917 0.517611
165 13 0.536589 0.684718 0.507676
115 5 0.58088 0.574561 0.509446
117 5 0.610097 0.57709 0.470341
132 3 0.573188 0.600496 0.500913
133 3 0.591149 0.616137 0.490808
134 3 0.61015 0.605539 0.475501
135 3 0.621101 0.61972 0.458372
150 3 0.585403 0.641521 0.48907
151 3 0.596367 0.655458 0.470049
152 3 0.615629 0.645575 0.45596
253 7 0.587027 0.581883 0.442275
258 6 0.586288 0.577774 0.535349
136 3 0.64248 0.609808 0.448414
119 3 0.649993 0.584882 0.45361
202 4 0.657989 0.621567 0.443681
201 4 0.67004 0.582414 0.452759
169 3 0.603574 0.696323 0.452895
167 3 0.574108 0.689877 0.485782
153 13 0.623746 0.660675 0.435888
170 3 0.612191 0.683944 0.432403
168 3 0.594077 0.681194 0.47132
212 7 0.527534 0.717365 0.517366
186 4 0.596283 0.71474 0.452256
7169 2 0.525484 0.569317 0.571796
7167 1 0.543001 0.569628 0.573434
7166 2 0.650412 0.46462 0.580356
ITEM: TIMESTEP
1000
ITEM: NUMBER OF ATOMS
272
ITEM: BOX BOUNDS pp pp pp
-2.7199999999999999e+01 2.7199999999999999e+01
-2.7199999999999999e+01 2.7199999999999999e+01
-2.7199999999999999e+01 2.7199999999999999e+01
ITEM: ATOMS id type xs ys zs
217 7 0.66359 0.643911 0.446828
205 9 0.659684 0.660996 0.447634
206 4 0.649635 0.7036 0.458109
187 4 0.334064 0.302857 0.459531
207 7 0.40366 0.285194 0.446216
1 3 0.348886 0.311393 0.467414
2 3 0.3721 0.308017 0.457659
4 13 0.413813 0.315107 0.456241
171 4 0.374926 0.28912 0.452503
172 9 0.418071 0.292518 0.447485
3 3 0.391442 0.321215 0.466251
52 13 0.330381 0.404631 0.501205
188 4 0.324822 0.335997 0.483764
191 4 0.319659 0.368652 0.495859
192 9 0.306561 0.410568 0.50847
214 7 0.305626 0.425152 0.51776
35 3 0.335819 0.379745 0.500217
36 3 0.359447 0.373869 0.491478
38 3 0.404299 0.381618 0.493319
37 3 0.380021 0.389005 0.498772
39 3 0.423522 0.395028 0.504009
18 3 0.344033 0.33385 0.478631
53 3 0.349615 0.422042 0.503939
54 3 0.374847 0.413568 0.505599
56 3 0.419158 0.421027 0.509853
19 3 0.364575 0.348479 0.486289
20 3 0.387918 0.344903 0.475863
21 3 0.407689 0.357197 0.485979
6 3 0.459234 0.322887 0.457932
173 4 0.461974 0.307754 0.445418
5 3 0.434795 0.327702 0.465682
7 3 0.479381 0.332783 0.470846
261 7 0.480062 0.336825 0.517134
23 3 0.450877 0.362418 0.488964
24 3 0.475171 0.355372 0.482296
25 5 0.494402 0.365106 0.500313
40 3 0.447894 0.38651 0.499156
41 3 0.467334 0.400798 0.50874
42 3 0.491597 0.392385 0.505672
260 6 0.490633 0.349521 0.521232
58 3 0.462868 0.425939 0.515461
22 3 0.431527 0.350521 0.477156
175 4 0.553707 0.313528 0.466084
174 9 0.50716 0.31203 0.444716
10 3 0.546363 0.332171 0.464997
8 13 0.503287 0.324988 0.466369
208 7 0.52131 0.318101 0.437332
9 3 0.523844 0.33662 0.476568
11 5 0.567301 0.350454 0.468835
248 6 0.562628 0.368437 0.450984
27 5 0.541515 0.368624 0.505886
28 3 0.566152 0.360678 0.495415
44 3 0.538188 0.395988 0.514805
45 5 0.558318 0.413368 0.504893
224 6 0.557077 0.410846 0.478606
225 7 0.540295 0.416652 0.474276
236 6 0.541586 0.351386 0.524968
257 7 0.532968 0.37032 0.457054
256 6 0.520082 0.376011 0.467044
26 5 0.520368 0.361593 0.488732
237 7 0.524998 0.349468 0.52913
43 5 0.511969 0.404217 0.522516
234 6 0.509176 0.393639 0.54657
255 7 0.510256 0.41982 0.555389
235 7 0.501729 0.378026 0.545691
209 7 0.624087 0.315421 0.443236
176 4 0.590347 0.324001 0.481371
177 9 0.637965 0.324991 0.446906
12 3 0.592541 0.33811 0.466784
14 13 0.634701 0.347402 0.458031
15 3 0.656729 0.362433 0.462587
13 3 0.614115 0.350809 0.473196
249 7 0.565088 0.384185 0.458434
29 5 0.590128 0.374486 0.503963
30 3 0.610005 0.374128 0.484501
31 3 0.6317 0.389612 0.487391
32 3 0.655899 0.380902 0.480812
46 3 0.584285 0.401683 0.510677
47 3 0.604371 0.418989 0.504824
48 5 0.6295 0.40796 0.508288
49 3 0.649626 0.428697 0.504443
226 6 0.632138 0.398014 0.532339
227 7 0.623007 0.382463 0.531423
240 6 0.598352 0.361074 0.524422
241 7 0.583019 0.353778 0.529465
219 7 0.667066 0.39957 0.531563
17 3 0.699836 0.361572 0.466109
218 6 0.681626 0.40534 0.52339
178 4 0.677588 0.334889 0.446196
33 3 0.676415 0.397031 0.48236
34 13 0.698869 0.385492 0.475924
50 5 0.67462 0.416849 0.502014
16 3 0.678943 0.353116 0.453098
189 4 0.718041 0.355282 0.46038
213 7 0.713636 0.396624 0.505112
190 9 0.719276 0.391177 0.48996
196 4 0.304098 0.491106 0.512268
69 3 0.325804 0.460586 0.502756
195 4 0.308978 0.454287 0.497091
86 3 0.320839 0.481792 0.515746
88 3 0.364202 0.489193 0.511819
90 3 0.407741 0.497309 0.510557
55 3 0.394965 0.430187 0.506589
70 3 0.346601 0.446896 0.510899
72 3 0.39156 0.454784 0.513404
71 3 0.366951 0.463362 0.514784
73 3 0.412255 0.471277 0.508912
103 3 0.314235 0.532834 0.528717
120 3 0.310097 0.558424 0.522765
199 4 0.297235 0.522555 0.530707
200 4 0.294382 0.568043 0.531385
89 3 0.384098 0.505119 0.516138
104 3 0.336725 0.523718 0.51885
105 3 0.357288 0.540189 0.522673
106 3 0.380606 0.531245 0.515802
107 3 0.401588 0.547148 0.520704
108 3 0.425045 0.538718 0.515356
122 3 0.35351 0.566085 0.523337
87 3 0.340314 0.498424 0.518943
59 3 0.482527 0.441942 0.515536
76 3 0.478842 0.468502 0.515704
75 3 0.455911 0.477548 0.509981
74 3 0.435752 0.461505 0.512683
57 3 0.438927 0.435925 0.510658
91 3 0.427693 0.513027 0.516584
92 3 0.451864 0.503599 0.512214
93 3 0.472087 0.518662 0.514333
109 3 0.445206 0.553531 0.519696
110 3 0.468915 0.544249 0.513294
111 3 0.489931 0.559978 0.51592
94 3 0.496134 0.509723 0.510948
61 5 0.52858 0.449168 0.510041
62 5 0.555159 0.439273 0.514751
78 5 0.52512 0.475514 0.51819
79 3 0.545288 0.49144 0.507018
228 6 0.560276 0.436277 0.540317
229 7 0.55919 0.452621 0.547068
250 6 0.523808 0.445317 0.484867
262 6 0.525191 0.477916 0.543406
251 7 0.508833 0.454415 0.483798
263 7 0.5213 0.462061 0.551773
60 5 0.508317 0.433367 0.524176
254 6 0.507625 0.436379 0.550133
77 3 0.499267 0.483638 0.512115
95 3 0.518248 0.525432 0.512841
96 3 0.541946 0.51672 0.506681
97 3 0.563231 0.532056 0.508117
112 3 0.513698 0.550494 0.511605
113 3 0.533801 0.566894 0.513821
114 3 0.557836 0.556956 0.508324
7125 1 0.539697 0.512326 0.577572
7168 2 0.533055 0.550892 0.577562
7126 2 0.532442 0.503292 0.564329
7127 2 0.55663 0.507546 0.577418
63 5 0.574723 0.457263 0.503807
64 5 0.601401 0.447148 0.510101
65 3 0.618789 0.459936 0.492997
66 5 0.644657 0.451506 0.488279
67 3 0.662549 0.469512 0.50013
80 5 0.572287 0.483254 0.511749
81 3 0.591567 0.497412 0.499679
82 3 0.61311 0.486087 0.4893
84 5 0.655777 0.496438 0.501649
220 6 0.648071 0.448373 0.462715
221 7 0.644608 0.464543 0.45586
222 6 0.611994 0.45407 0.534739
223 7 0.624664 0.4429 0.534259
230 6 0.571608 0.458208 0.477975
231 7 0.567131 0.441257 0.472874
232 6 0.576522 0.48706 0.537163
242 6 0.643159 0.497863 0.45986
233 7 0.59231 0.479956 0.541697
51 3 0.693404 0.43762 0.499297
7165 2 0.65397 0.500847 0.579166
68 3 0.687699 0.463242 0.499812
194 4 0.701567 0.473406 0.508714
193 4 0.710059 0.438819 0.508602
7164 1 0.641402 0.512868 0.576494
98 3 0.586451 0.523266 0.498661
99 5 0.60881 0.53819 0.504635
100 3 0.628495 0.530349 0.484356
116 3 0.603591 0.565853 0.502634
118 3 0.642724 0.572234 0.481345
244 6 0.616739 0.533825 0.529702
245 7 0.605564 0.543999 0.539945
252 6 0.604261 0.573533 0.456753
101 5 0.650262 0.546854 0.475278
246 6 0.655795 0.544415 0.448321
239 7 0.640259 0.514717 0.528065
243 7 0.648582 0.512795 0.451893
247 7 0.640751 0.547813 0.440781
238 6 0.65124 0.500822 0.526753
85 3 0.677724 0.512551 0.49654
102 13 0.672759 0.537118 0.490425
198 9 0.693711 0.545468 0.478851
215 7 0.693677 0.548672 0.461728
197 4 0.691777 0.513885 0.510548
83 5 0.634533 0.50329 0.484454
137 13 0.303748 0.612142 0.509956
203 9 0.285247 0.598302 0.499033
216 7 0.289579 0.582313 0.493524
154 3 0.298467 0.636337 0.516868
204 4 0.282149 0.643731 0.507692
138 3 0.324473 0.601442 0.520134
155 3 0.318128 0.652051 0.518841
121 3 0.328799 0.575402 0.519004
123 3 0.373978 0.581665 0.519868
124 3 0.398178 0.573027 0.521798
125 3 0.417574 0.588533 0.518295
139 3 0.345152 0.616944 0.521841
140 3 0.369111 0.607244 0.522317
141 3 0.39 0.623383 0.517663
142 3 0.413678 0.614363 0.519414
156 3 0.342307 0.642318 0.517613
158 3 0.38644 0.64906 0.519433
157 13 0.362474 0.658613 0.518526
159 3 0.406538 0.665199 0.516925
179 4 0.314456 0.671154 0.513501
180 9 0.35902 0.683592 0.512968
181 4 0.404053 0.683754 0.520726
210 7 0.371935 0.69474 0.515008
211 7 0.459108 0.707247 0.515768
126 3 0.441798 0.579466 0.520667
127 3 0.461825 0.595451 0.515647
143 3 0.433946 0.629662 0.516372
144 3 0.458794 0.620406 0.519608
145 3 0.478504 0.63703 0.518373
128 3 0.48628 0.585597 0.517974
160 3 0.430592 0.655697 0.519711
162 3 0.474608 0.661507 0.522465
163 3 0.495276 0.677459 0.522627
183 4 0.492587 0.695837 0.521771
182 9 0.446008 0.696476 0.519658
161 13 0.450141 0.671658 0.517967
129 3 0.505757 0.602986 0.515208
130 3 0.530397 0.593209 0.516309
131 3 0.550831 0.609306 0.513114
146 3 0.502101 0.627598 0.519799
147 3 0.52336 0.643433 0.517972
148 3 0.546283 0.635339 0.508602
149 3 0.566014 0.650984 0.506609
259 7 0.567606 0.575765 0.545112
185 4 0.580542 0.711828 0.504803
184 9 0.534731 0.710041 0.514178
166 3 0.561859 0.676272 0.506174
164 3 0.5194 0.668882 0.516699
165 13 0.53989 0.685856 0.516261
115 5 0.579114 0.574808 0.513744
117 5 0.615169 0.57821 0.479968
132 3 0.573661 0.601021 0.504924
133 3 0.592906 0.616279 0.497215
134 3 0.614411 0.605906 0.487156
135 3 0.630548 0.623782 0.475679
150 3 0.58789 0.641367 0.494507
151 3 0.605727 0.65806 0.487279
152 3 0.62989 0.648572 0.480328
253 7 0.597688 0.588593 0.451956
258 6 0.583152 0.573004 0.538439
136 3 0.652949 0.613823 0.468222
119 3 0.660845 0.590105 0.475335
202 4 0.668536 0.624303 0.466123
201 4 0.676731 0.582306 0.465969
169 3 0.621097 0.700308 0.483802
167 3 0.581634 0.692556 0.505352
153 13 0.64529 0.666428 0.467126
170 3 0.637237 0.690938 0.465584
168 3 0.604265 0.683324 0.494329
212 7 0.548881 0.719916 0.515908
186 4 0.614382 0.718155 0.483502
7169 2 0.546566 0.573164 0.587354
7167 1 0.539559 0.56649 0.572659
7166 2 0.639828 0.513791 0.558993
ITEM: TIMESTEP
2000
ITEM: NUMBER OF ATOMS
272
ITEM: BOX BOUNDS pp pp pp
-2.7199999999999999e+01 2.7199999999999999e+01
-2.7199999999999999e+01 2.7199999999999999e+01
-2.7199999999999999e+01 2.7199999999999999e+01
ITEM: ATOMS id type xs ys zs
187 4 0.337868 0.308374 0.434005
207 7 0.409945 0.285069 0.438922
1 3 0.351585 0.316266 0.445297
2 3 0.376414 0.311371 0.441632
4 13 0.420398 0.315262 0.450722
171 4 0.377701 0.290956 0.437104
172 9 0.42302 0.290813 0.44699
3 3 0.395525 0.322737 0.454737
52 13 0.332209 0.409665 0.487438
188 4 0.327498 0.34099 0.459504
191 4 0.322036 0.375148 0.476251
192 9 0.311703 0.413258 0.499637
214 7 0.3129 0.425868 0.511345
35 3 0.337593 0.384421 0.483741
36 3 0.361304 0.378287 0.475944
38 3 0.406136 0.382718 0.482924
37 3 0.380353 0.391205 0.486391
39 3 0.424777 0.396237 0.495432
18 3 0.3482 0.340184 0.454168
53 3 0.351544 0.426301 0.490875
54 3 0.375949 0.416153 0.4937
56 3 0.419795 0.421425 0.501736
19 3 0.366416 0.353926 0.46803
20 3 0.39195 0.347164 0.464365
21 3 0.410756 0.357763 0.477925
6 3 0.463612 0.319842 0.461744
173 4 0.469365 0.302355 0.454957
5 3 0.439532 0.325949 0.465443
7 3 0.48195 0.328157 0.479881
261 7 0.47984 0.336021 0.521953
23 3 0.453252 0.362243 0.487276
24 3 0.477425 0.352546 0.487358
25 5 0.49487 0.363548 0.506099
40 3 0.450001 0.387212 0.495036
41 3 0.468571 0.40175 0.506734
42 3 0.492024 0.391749 0.507998
260 6 0.490538 0.349892 0.527358
58 3 0.463439 0.426648 0.510413
22 3 0.435058 0.350467 0.473778
175 4 0.555301 0.308879 0.490693
174 9 0.510958 0.297434 0.467485
10 3 0.548906 0.325588 0.478605
8 13 0.506752 0.317931 0.48145
208 7 0.498224 0.292851 0.456698
9 3 0.526205 0.332302 0.489388
11 5 0.568947 0.344543 0.478335
248 6 0.565208 0.35761 0.457089
27 5 0.541919 0.368198 0.512888
28 3 0.567527 0.360994 0.502253
44 3 0.538866 0.395981 0.516923
45 5 0.557105 0.41215 0.505167
224 6 0.558068 0.409595 0.479912
225 7 0.542598 0.401452 0.475285
236 6 0.540556 0.354786 0.534395
257 7 0.539582 0.367752 0.466171
256 6 0.523803 0.372797 0.473815
26 5 0.521712 0.358676 0.495799
237 7 0.524628 0.358858 0.541982
43 5 0.511894 0.405177 0.523461
234 6 0.509218 0.396513 0.54864
255 7 0.503227 0.423908 0.554294
235 7 0.498287 0.38218 0.547982
209 7 0.624719 0.313703 0.452803
176 4 0.59607 0.323676 0.493529
177 9 0.637979 0.325817 0.451158
12 3 0.594476 0.335023 0.476968
14 13 0.633611 0.349039 0.46081
15 3 0.654495 0.365277 0.462889
13 3 0.61604 0.350048 0.478332
249 7 0.57853 0.356457 0.445712
29 5 0.591814 0.375177 0.509145
30 3 0.610417 0.373259 0.488017
31 3 0.631026 0.389462 0.491263
32 3 0.654075 0.383902 0.4802
46 3 0.583281 0.402412 0.512223
47 3 0.603989 0.420172 0.509682
48 5 0.630184 0.408807 0.511603
49 3 0.650352 0.428846 0.507434
226 6 0.633746 0.398115 0.535079
227 7 0.625402 0.382382 0.533621
240 6 0.600825 0.36307 0.529775
241 7 0.589779 0.366849 0.54337
219 7 0.667533 0.401418 0.535277
17 3 0.698748 0.366532 0.465112
218 6 0.681102 0.405814 0.525658
178 4 0.678734 0.336186 0.450365
33 3 0.675978 0.398508 0.483858
34 13 0.698 0.390424 0.4741
50 5 0.675479 0.418026 0.504691
16 3 0.676958 0.356154 0.455022
213 7 0.714464 0.403349 0.502495
189 4 0.714291 0.357498 0.45733
190 9 0.718807 0.394525 0.487565
196 4 0.302974 0.493324 0.503902
69 3 0.327037 0.463979 0.493045
195 4 0.309551 0.455632 0.488409
86 3 0.319903 0.484129 0.506757
88 3 0.363868 0.49144 0.509754
90 3 0.407975 0.497633 0.511181
55 3 0.396133 0.432421 0.497061
70 3 0.348134 0.450799 0.500444
72 3 0.392178 0.456087 0.505504
71 3 0.368399 0.465517 0.507253
73 3 0.411937 0.472448 0.504478
103 3 0.31331 0.536039 0.528702
120 3 0.309915 0.561526 0.522556
199 4 0.295781 0.525988 0.529903
200 4 0.293118 0.568106 0.530134
89 3 0.384494 0.506681 0.516218
104 3 0.336716 0.526817 0.520625
105 3 0.358039 0.541158 0.525478
106 3 0.381326 0.532525 0.519324
107 3 0.401965 0.547084 0.525726
108 3 0.426053 0.538247 0.5209
122 3 0.353538 0.566775 0.525726
87 3 0.339604 0.501204 0.514968
59 3 0.482343 0.443524 0.511661
76 3 0.478769 0.469549 0.512383
75 3 0.455466 0.478801 0.506018
74 3 0.435157 0.462509 0.506914
57 3 0.440388 0.436679 0.50364
91 3 0.428994 0.511945 0.51771
92 3 0.452941 0.504095 0.510939
93 3 0.473719 0.520934 0.514762
109 3 0.446395 0.552675 0.524589
110 3 0.470268 0.545483 0.51742
111 3 0.490698 0.559714 0.521397
94 3 0.497349 0.511701 0.510174
61 5 0.527475 0.448541 0.50953
62 5 0.55394 0.438572 0.51598
78 5 0.524581 0.476428 0.517969
79 3 0.546895 0.492015 0.508966
228 6 0.55556 0.435999 0.542463
229 7 0.558996 0.452055 0.548805
250 6 0.523882 0.447948 0.483244
262 6 0.524017 0.479472 0.544102
251 7 0.541247 0.450099 0.476258
263 7 0.51356 0.466383 0.550711
60 5 0.506568 0.433931 0.521709
254 6 0.501242 0.440054 0.547372
77 3 0.499367 0.485734 0.510161
95 3 0.518841 0.52545 0.5138
96 3 0.543198 0.517409 0.508222
97 3 0.564343 0.533622 0.509384
112 3 0.514452 0.551187 0.516306
113 3 0.535833 0.567032 0.518071
114 3 0.558555 0.558115 0.507918
7126 2 0.537627 0.503007 0.567935
259 7 0.569935 0.573775 0.547366
7167 1 0.546229 0.562763 0.572697
63 5 0.573947 0.45594 0.506711
64 5 0.601246 0.446952 0.513352
65 3 0.617958 0.460355 0.495518
66 5 0.644863 0.450832 0.490715
67 3 0.661083 0.470127 0.502523
80 5 0.572392 0.482925 0.516371
81 3 0.592746 0.498661 0.505877
82 3 0.612167 0.486165 0.491759
84 5 0.656138 0.498268 0.501007
220 6 0.649713 0.447031 0.464868
221 7 0.643173 0.461489 0.457576
222 6 0.606804 0.450254 0.538779
223 7 0.613089 0.435412 0.545434
230 6 0.571131 0.455528 0.480641
231 7 0.570629 0.438138 0.475003
232 6 0.577003 0.485541 0.542144
242 6 0.637259 0.494331 0.460631
233 7 0.592831 0.478309 0.545404
51 3 0.693825 0.438547 0.504598
68 3 0.6862 0.463599 0.502539
194 4 0.699856 0.476392 0.511316
193 4 0.708316 0.438095 0.517544
98 3 0.587431 0.523521 0.501434
99 5 0.610784 0.539757 0.503869
100 3 0.626427 0.52921 0.482413
116 3 0.603685 0.566517 0.499617
244 6 0.619697 0.536606 0.528764
245 7 0.608409 0.545792 0.539498
101 5 0.646124 0.545574 0.468809
246 6 0.64918 0.543795 0.442244
239 7 0.641115 0.515845 0.527401
243 7 0.642131 0.507848 0.450881
247 7 0.632855 0.546094 0.434787
238 6 0.65401 0.503743 0.525805
85 3 0.676312 0.515081 0.49167
102 13 0.671156 0.538526 0.481305
198 9 0.69023 0.545126 0.466453
215 7 0.682823 0.542643 0.450255
197 4 0.689898 0.520669 0.505349
83 5 0.633174 0.50197 0.484921
7166 2 0.650637 0.488896 0.560711
203 9 0.286084 0.599655 0.500316
204 4 0.288129 0.64626 0.501146
137 13 0.305859 0.613142 0.50975
216 7 0.289216 0.583611 0.494044
154 3 0.30059 0.637599 0.51538
138 3 0.326194 0.602397 0.521706
155 3 0.320804 0.652957 0.519581
121 3 0.330204 0.577252 0.520019
123 3 0.373812 0.582471 0.525008
124 3 0.397909 0.572172 0.528962
125 3 0.418141 0.587847 0.526638
139 3 0.346055 0.617047 0.528061
140 3 0.371192 0.607585 0.52897
141 3 0.391296 0.623295 0.526735
142 3 0.415288 0.613049 0.531311
156 3 0.344746 0.642785 0.522883
158 3 0.38769 0.648738 0.533962
157 13 0.364036 0.659 0.529836
159 3 0.407949 0.665835 0.533788
179 4 0.319424 0.671205 0.515148
180 9 0.3633 0.682762 0.523146
181 4 0.406742 0.683286 0.543401
210 7 0.377245 0.690613 0.52903
211 7 0.462782 0.705167 0.545765
126 3 0.442577 0.577668 0.528762
127 3 0.462093 0.594051 0.524266
143 3 0.435105 0.629208 0.528318
144 3 0.458658 0.620128 0.530577
145 3 0.478774 0.636752 0.528453
128 3 0.48714 0.585315 0.52546
160 3 0.431494 0.655401 0.535456
162 3 0.475138 0.6613 0.535531
163 3 0.494999 0.677231 0.530677
183 4 0.49017 0.696383 0.525947
182 9 0.448497 0.695719 0.542182
161 13 0.451124 0.672362 0.533176
129 3 0.507296 0.601778 0.522362
130 3 0.531937 0.592705 0.521052
131 3 0.550593 0.609474 0.514199
146 3 0.503022 0.626888 0.526897
147 3 0.521918 0.643843 0.520689
148 3 0.543587 0.63504 0.510784
149 3 0.561975 0.650924 0.50236
184 9 0.528703 0.709132 0.505216
166 3 0.555547 0.676262 0.49899
164 3 0.516528 0.668825 0.518143
165 13 0.535181 0.686024 0.511196
217 7 0.640459 0.638404 0.425108
205 9 0.643413 0.655666 0.42863
206 4 0.635496 0.701315 0.435114
118 3 0.639101 0.572558 0.474648
252 6 0.599633 0.573208 0.453082
185 4 0.569875 0.710231 0.488644
115 5 0.579285 0.575747 0.511568
117 5 0.612346 0.579471 0.475893
132 3 0.571375 0.600993 0.501812
133 3 0.590205 0.616548 0.495
134 3 0.61185 0.607486 0.483442
135 3 0.625036 0.623104 0.467325
150 3 0.581893 0.640977 0.488577
151 3 0.598507 0.657503 0.476292
152 3 0.621452 0.649609 0.466726
253 7 0.589246 0.587098 0.450755
258 6 0.584405 0.57603 0.537417
136 3 0.64681 0.613293 0.45737
119 3 0.654923 0.589965 0.465611
202 4 0.66132 0.623981 0.448834
201 4 0.67118 0.585014 0.454436
169 3 0.610428 0.698575 0.466866
167 3 0.574687 0.692123 0.491893
153 13 0.634252 0.665068 0.449624
170 3 0.623642 0.688826 0.445693
168 3 0.59554 0.682549 0.480023
212 7 0.543239 0.71879 0.504121
186 4 0.606432 0.717739 0.46551
7125 1 0.548672 0.508567 0.580453
7168 2 0.547157 0.545958 0.577828
7127 2 0.564272 0.501833 0.57588
7169 2 0.553107 0.571854 0.586101
7165 2 0.662825 0.493282 0.585342
7164 1 0.65299 0.481629 0.576562
ITEM: TIMESTEP
3000
ITEM: NUMBER OF ATOMS
272
ITEM: BOX BOUNDS pp pp pp
-2.7199999999999999e+01 2.7199999999999999e+01
-2.7199999999999999e+01 2.7199999999999999e+01
-2.7199999999999999e+01 2.7199999999999999e+01
ITEM: ATOMS id type xs ys zs
217 7 0.645711 0.631638 0.425847
205 9 0.640486 0.648044 0.424307
207 7 0.41213 0.291028 0.424431
187 4 0.337421 0.304919 0.440639
1 3 0.351376 0.313778 0.451905
2 3 0.375746 0.308774 0.444359
4 13 0.418886 0.317235 0.446449
171 4 0.378973 0.291464 0.435698
172 9 0.423845 0.294663 0.435381
3 3 0.394493 0.322983 0.454579
52 13 0.333518 0.406636 0.496422
188 4 0.327768 0.33835 0.466753
191 4 0.323028 0.373513 0.48013
192 9 0.3123 0.410847 0.510418
214 7 0.31321 0.42127 0.524339
35 3 0.33829 0.382932 0.488044
36 3 0.362043 0.376972 0.480127
38 3 0.405221 0.382988 0.48523
37 3 0.381015 0.389744 0.490944
39 3 0.424765 0.395758 0.496488
18 3 0.345968 0.338075 0.459433
53 3 0.352908 0.423166 0.503196
54 3 0.3768 0.413915 0.500796
56 3 0.420333 0.419593 0.504679
19 3 0.365782 0.352433 0.470821
20 3 0.38981 0.345479 0.464423
21 3 0.409793 0.358946 0.475994
6 3 0.462816 0.323665 0.452598
173 4 0.467069 0.305183 0.446973
5 3 0.438452 0.329164 0.457848
7 3 0.482168 0.336619 0.463834
261 7 0.486503 0.355662 0.532891
23 3 0.452581 0.363531 0.482983
24 3 0.47751 0.357124 0.478065
25 5 0.495798 0.36407 0.497499
40 3 0.449499 0.388432 0.491021
41 3 0.468195 0.400646 0.504922
42 3 0.492712 0.391489 0.502669
260 6 0.491585 0.346913 0.517863
58 3 0.462389 0.425544 0.511074
22 3 0.434156 0.352469 0.46889
175 4 0.550577 0.31225 0.473922
174 9 0.509634 0.306615 0.445512
10 3 0.549859 0.329694 0.464441
8 13 0.506052 0.323816 0.463187
208 7 0.496406 0.301152 0.435579
9 3 0.526732 0.335889 0.474534
11 5 0.570151 0.346938 0.470517
248 6 0.568125 0.364889 0.452017
27 5 0.542478 0.367244 0.505086
28 3 0.568464 0.361541 0.494852
44 3 0.538601 0.394035 0.513379
45 5 0.557994 0.412029 0.505022
224 6 0.560456 0.413555 0.479089
225 7 0.547036 0.405296 0.470266
236 6 0.542627 0.352128 0.526405
257 7 0.541903 0.372361 0.459048
256 6 0.527345 0.378058 0.466573
26 5 0.522261 0.361237 0.486075
237 7 0.528605 0.342102 0.528038
43 5 0.51155 0.402675 0.52045
234 6 0.507295 0.390555 0.544357
255 7 0.501773 0.418428 0.554151
235 7 0.521937 0.383696 0.55254
209 7 0.625922 0.316446 0.45001
176 4 0.59481 0.319614 0.480039
177 9 0.641157 0.325767 0.44827
12 3 0.594993 0.335102 0.467687
14 13 0.636393 0.347342 0.460752
15 3 0.657587 0.362287 0.465913
13 3 0.615306 0.349475 0.475146
249 7 0.582994 0.363812 0.44298
29 5 0.590684 0.375152 0.504427
30 3 0.611935 0.37299 0.486745
31 3 0.632145 0.389794 0.489807
32 3 0.654883 0.381349 0.482979
46 3 0.582657 0.401221 0.511447
47 3 0.603028 0.41876 0.508514
48 5 0.62942 0.407363 0.510361
226 6 0.63308 0.394372 0.533188
227 7 0.622025 0.380411 0.533408
240 6 0.594918 0.364865 0.527237