ITEM: TIMESTEP
5000
ITEM: NUMBER OF ATOMS
693
ITEM: BOX BOUNDS pp pp pp
-2.0000000000000000e+01 2.0000000000000000e+01
-2.0000000000000000e+01 2.0000000000000000e+01
-3.0000000000000000e+01 7.0000000000000000e+01
ITEM: ATOMS id type xs ys zs
106 3 0.416611 0.388869 0.304426
105 3 0.393562 0.415103 0.302712
119 3 0.486304 0.364631 0.310722
129 3 0.546335 0.373753 0.302275
120 3 0.521373 0.371413 0.312114
130 3 0.57865 0.386246 0.304919
78 3 0.382524 0.545206 0.303214
91 3 0.374849 0.470472 0.309327
92 3 0.385065 0.438648 0.312418
21 3 0.638074 0.504119 0.301866
22 3 0.630792 0.536835 0.303582
137 3 0.625781 0.44381 0.310169
138 3 0.630702 0.479044 0.311385
77 3 0.387973 0.578194 0.300678
64 3 0.406247 0.595498 0.309992
63 3 0.431493 0.619198 0.308204
49 3 0.539292 0.615523 0.299695
50 3 0.507573 0.62554 0.302633
36 3 0.562273 0.61259 0.310423
51 3 0.492293 0.62334 0.315147
35 3 0.596866 0.60154 0.309574
84 3 0.403925 0.412435 0.352097
94 3 0.41334 0.403093 0.328099
95 3 0.42221 0.396379 0.34158
85 3 0.411653 0.404642 0.365705
107 3 0.430706 0.385675 0.317235
96 3 0.453846 0.383962 0.344398
97 3 0.463807 0.380703 0.357887
98 3 0.497493 0.375874 0.359872
108 3 0.461931 0.373902 0.320634
109 3 0.475228 0.377358 0.333761
110 3 0.508892 0.377948 0.336059
111 3 0.520999 0.378359 0.349469
112 3 0.55441 0.385464 0.351819
121 3 0.531709 0.380733 0.32516
122 3 0.563833 0.391587 0.327949
113 3 0.565551 0.388482 0.365044
86 3 0.440861 0.387983 0.368105
123 3 0.57545 0.394573 0.341205
124 3 0.601738 0.416315 0.343693
131 3 0.586098 0.400373 0.317471
125 3 0.608324 0.425316 0.356838
132 3 0.61067 0.423719 0.320149
114 3 0.596141 0.404627 0.36728
93 3 0.392441 0.430948 0.326059
56 3 0.389119 0.56344 0.34996
66 3 0.384986 0.553956 0.326379
67 3 0.381801 0.542711 0.339396
68 3 0.37473 0.50963 0.342594
69 3 0.372157 0.497883 0.355907
70 3 0.377131 0.46402 0.359071
79 3 0.379122 0.530837 0.315833
80 3 0.374812 0.497249 0.31868
81 3 0.377365 0.48666 0.332142
82 3 0.382216 0.453042 0.335477
83 3 0.387173 0.44249 0.348905
57 3 0.382902 0.554039 0.36314
58 3 0.371351 0.521327 0.366421
11 3 0.623262 0.536818 0.340425
23 3 0.626258 0.549615 0.316374
126 3 0.620542 0.457109 0.359281
133 3 0.615981 0.433631 0.333119
134 3 0.627476 0.467151 0.335312
135 3 0.624513 0.479487 0.348592
136 3 0.625343 0.513798 0.351311
139 3 0.628243 0.491385 0.324412
140 3 0.628524 0.526503 0.32705
12 3 0.612099 0.56909 0.343402
5 3 0.623464 0.524961 0.364585
6 3 0.613755 0.558522 0.366848
65 3 0.401056 0.583902 0.32349
55 3 0.410293 0.589837 0.347272
54 3 0.417826 0.598966 0.334039
42 3 0.430684 0.60118 0.357484
27 3 0.559803 0.616235 0.34831
28 3 0.527303 0.627338 0.350257
37 3 0.549459 0.619 0.323547
38 3 0.51491 0.625089 0.326279
39 3 0.502886 0.629059 0.33964
40 3 0.469027 0.623372 0.342362
41 3 0.460336 0.619548 0.355502
52 3 0.457514 0.622029 0.317958
53 3 0.448202 0.616664 0.331517
26 3 0.570412 0.609897 0.335004
29 3 0.516068 0.629953 0.363741
30 3 0.481195 0.62923 0.366261
13 3 0.601362 0.577776 0.356569
14 3 0.575991 0.600572 0.359198
24 3 0.608411 0.579909 0.31991
25 3 0.598268 0.5881 0.332848
72 3 0.39687 0.4222 0.375938
73 3 0.406386 0.416232 0.3894
246 1 0.426383 0.402789 0.416545
245 1 0.402838 0.428094 0.413702
74 3 0.432763 0.393014 0.391771
75 1 0.443941 0.388609 0.406021
76 1 0.477078 0.37679 0.408253
87 3 0.453143 0.383758 0.381152
88 3 0.486881 0.37792 0.383451
89 3 0.49933 0.372906 0.396516
90 3 0.533299 0.372312 0.398976
99 3 0.509275 0.376982 0.372851
100 3 0.543628 0.378301 0.375187
101 3 0.555427 0.379849 0.388065
269 1 0.544997 0.374441 0.413257
270 1 0.578993 0.384583 0.415597
102 3 0.587056 0.394265 0.390474
103 1 0.596545 0.399598 0.404762
115 3 0.604238 0.411692 0.380498
45 3 0.388489 0.566317 0.387224
46 3 0.376793 0.534563 0.390608
47 1 0.374538 0.524612 0.404741
48 1 0.376756 0.491247 0.407933
59 3 0.372427 0.511486 0.379971
60 3 0.377554 0.477532 0.382935
61 3 0.384129 0.468759 0.396591
62 3 0.3979 0.437982 0.399522
71 3 0.382442 0.454226 0.372947
218 1 0.375683 0.548328 0.414911
231 1 0.375416 0.481277 0.420956
1 3 0.623216 0.51227 0.388329
2 3 0.613004 0.545397 0.391139
3 1 0.608881 0.55425 0.40533
7 3 0.60625 0.56807 0.380245
104 1 0.613749 0.429583 0.407469
116 3 0.617515 0.442593 0.383089
117 3 0.618796 0.453468 0.396463
118 3 0.622335 0.48774 0.398438
127 3 0.627198 0.465676 0.372786
128 3 0.625509 0.501674 0.375234
161 1 0.61881 0.49756 0.412788
162 1 0.613362 0.53106 0.415523
277 1 0.617255 0.440845 0.420891
44 3 0.394433 0.573648 0.373696
34 3 0.398147 0.587437 0.397403
43 3 0.420122 0.596602 0.37066
217 1 0.388799 0.579323 0.4116
33 3 0.425754 0.608207 0.394539
10 3 0.546183 0.619809 0.398379
16 3 0.536433 0.624285 0.374587
17 3 0.524012 0.628528 0.387489
18 3 0.490017 0.631048 0.389765
19 1 0.477816 0.626824 0.40399
20 1 0.444705 0.619646 0.406233
31 3 0.46765 0.630792 0.379084
32 3 0.436608 0.613886 0.38112
189 1 0.53388 0.620067 0.412532
190 1 0.49998 0.625244 0.415045
15 3 0.568442 0.610696 0.37242
203 1 0.433751 0.614794 0.419411
4 1 0.590933 0.584601 0.407939
8 3 0.587327 0.597049 0.382897
9 3 0.577229 0.601865 0.396195
175 1 0.579634 0.590105 0.420659
234 1 0.416163 0.4128 0.440141
235 1 0.425865 0.404823 0.453634
224 1 0.409656 0.420559 0.46459
247 1 0.432785 0.394574 0.429877
259 1 0.488032 0.377444 0.421653
236 1 0.455272 0.388073 0.455883
237 1 0.463937 0.382389 0.469179
248 1 0.465375 0.383193 0.432447
249 1 0.47711 0.380393 0.445491
250 1 0.510975 0.376022 0.448288
251 1 0.521515 0.377843 0.461577
252 1 0.555739 0.380811 0.464337
260 1 0.522712 0.374306 0.424445
261 1 0.534185 0.372427 0.437574
262 1 0.569407 0.37842 0.440305
238 1 0.497711 0.378316 0.472185
263 1 0.577397 0.386595 0.453478
264 1 0.604978 0.4087 0.455438
271 1 0.588533 0.390584 0.429137
272 1 0.609443 0.418823 0.431607
265 1 0.610467 0.418469 0.468848
273 1 0.619681 0.42686 0.444477
206 1 0.377435 0.561359 0.438672
207 1 0.375476 0.550595 0.451786
208 1 0.375082 0.516686 0.454595
209 1 0.373707 0.506057 0.467935
219 1 0.37006 0.539161 0.428441
220 1 0.369038 0.503735 0.431247
221 1 0.372566 0.493405 0.444596
222 1 0.384929 0.460391 0.447754
223 1 0.392122 0.450354 0.461395
232 1 0.388501 0.448747 0.423671
233 1 0.395279 0.44001 0.437112
210 1 0.384176 0.473506 0.471598
151 1 0.6158 0.529203 0.452101
163 1 0.606629 0.540149 0.428742
274 1 0.628088 0.461088 0.446578
275 1 0.630818 0.47162 0.460019
276 1 0.62604 0.506336 0.462592
278 1 0.622147 0.474898 0.423347
279 1 0.622852 0.484511 0.436322
280 1 0.617633 0.518436 0.439082
152 1 0.597469 0.558769 0.45521
266 1 0.627688 0.449031 0.470867
164 1 0.591649 0.570795 0.431692
153 1 0.591743 0.567849 0.468589
196 1 0.382402 0.573692 0.462209
194 1 0.411586 0.606288 0.446274
195 1 0.402154 0.600884 0.459603
204 1 0.403244 0.597892 0.422137
205 1 0.395555 0.590101 0.435398
182 1 0.418878 0.618871 0.470067
167 1 0.552172 0.610011 0.46065
168 1 0.520065 0.623343 0.463466
176 1 0.551541 0.608965 0.423437
177 1 0.542178 0.613188 0.43683
178 1 0.509865 0.623757 0.439288
179 1 0.498222 0.629804 0.452395
180 1 0.463537 0.633573 0.454203
181 1 0.451207 0.631235 0.467482
191 1 0.488348 0.625461 0.428279
192 1 0.454429 0.623245 0.430188
193 1 0.442312 0.623113 0.44363
166 1 0.562963 0.603263 0.447656
154 1 0.568935 0.5951 0.471404
165 1 0.587471 0.580363 0.444881
213 1 0.411426 0.425907 0.501097
225 1 0.415726 0.413278 0.477987
214 1 0.434902 0.401555 0.504061
215 1 0.44355 0.392852 0.517308
216 1 0.47649 0.380514 0.519727
226 1 0.441686 0.390051 0.479838
227 1 0.451388 0.3852 0.493342
228 1 0.484523 0.375439 0.495991
229 1 0.497998 0.375005 0.509045
230 1 0.532969 0.376347 0.511659
239 1 0.508325 0.376047 0.485131
240 1 0.54229 0.380212 0.488354
241 1 0.553698 0.383403 0.501315
253 1 0.565118 0.384898 0.47779
409 1 0.543899 0.376506 0.524748
242 1 0.587072 0.393888 0.503629
243 1 0.597842 0.399282 0.516783
254 1 0.594715 0.402579 0.47985
255 1 0.604273 0.409358 0.492905
244 1 0.619233 0.42617 0.519379
212 1 0.401509 0.432122 0.488071
186 1 0.368621 0.542503 0.502915
187 1 0.366507 0.532471 0.51627
188 1 0.372664 0.498812 0.519778
198 1 0.370396 0.52976 0.478615
199 1 0.3679 0.52004 0.492166
200 1 0.377547 0.487019 0.495508
201 1 0.380968 0.478255 0.509121
202 1 0.398954 0.447508 0.511612
211 1 0.386611 0.464067 0.485399
197 1 0.374814 0.563377 0.475613
385 1 0.404133 0.436606 0.525242
141 1 0.62646 0.505991 0.500046
142 1 0.611751 0.536567 0.502989
143 1 0.608295 0.546893 0.516536
145 1 0.621609 0.517086 0.476052
146 1 0.602841 0.547039 0.478864
147 1 0.596669 0.554556 0.49238
256 1 0.623035 0.438527 0.495119
257 1 0.628164 0.448525 0.508857
258 1 0.632648 0.483422 0.510848
267 1 0.630185 0.460535 0.484247
268 1 0.625836 0.49453 0.486633
301 1 0.630499 0.492506 0.52481
185 1 0.377803 0.576478 0.499295
174 1 0.391948 0.595912 0.50977
183 1 0.409265 0.61018 0.483375
184 1 0.383941 0.585481 0.485875
357 1 0.380421 0.589494 0.522799
173 1 0.416953 0.620189 0.50738
172 1 0.428205 0.621929 0.493937
150 1 0.535527 0.606193 0.510336
156 1 0.528735 0.618035 0.487519
157 1 0.51648 0.619081 0.500308
158 1 0.483362 0.627833 0.502861
159 1 0.472761 0.631778 0.516425
160 1 0.437463 0.63523 0.517046
169 1 0.508268 0.628007 0.476385
170 1 0.473764 0.631642 0.478022
171 1 0.462317 0.629346 0.491788
329 1 0.526739 0.611148 0.523763
155 1 0.560392 0.601429 0.48506
149 1 0.564105 0.585731 0.508149
144 1 0.583249 0.571619 0.519002
148 1 0.573327 0.58007 0.494851
386 1 0.426959 0.410032 0.527866
364 1 0.413734 0.42507 0.576295
374 1 0.419477 0.417213 0.55157
375 1 0.429704 0.40987 0.565088
376 1 0.456096 0.387319 0.567787
387 1 0.434972 0.40194 0.540717
388 1 0.464747 0.38486 0.543728
389 1 0.475195 0.377066 0.556898
390 1 0.508501 0.366116 0.558282
392 1 0.567415 0.362956 0.576818
399 1 0.486159 0.376689 0.533347
400 1 0.521356 0.372755 0.535105
401 1 0.533574 0.370182 0.548357
402 1 0.568278 0.375444 0.551562
403 1 0.579093 0.379668 0.564759
410 1 0.578242 0.38141 0.527476
404 1 0.603553 0.402859 0.569329
411 1 0.58913 0.38623 0.540827
412 1 0.617538 0.40754 0.54199
336 1 0.390836 0.56039 0.576668
358 1 0.370571 0.556813 0.526612
359 1 0.373878 0.548474 0.54059
360 1 0.377938 0.511995 0.54386
361 1 0.378589 0.49863 0.556799
362 1 0.392677 0.467135 0.560548
363 1 0.395378 0.454379 0.573689
371 1 0.379558 0.48872 0.533089
372 1 0.392648 0.456111 0.535912
373 1 0.398186 0.44558 0.549313
347 1 0.383371 0.568431 0.563884
291 1 0.615942 0.523102 0.564887
292 1 0.59818 0.553239 0.566909
302 1 0.619735 0.525892 0.527038
303 1 0.61155 0.534902 0.540305
414 1 0.641927 0.463096 0.560833
415 1 0.629208 0.469596 0.573953
416 1 0.624359 0.503712 0.576031
417 1 0.626483 0.433919 0.532972
418 1 0.63222 0.468198 0.535581
419 1 0.634319 0.480829 0.548778
420 1 0.621325 0.513659 0.551126
304 1 0.587547 0.559523 0.542634
305 1 0.581623 0.568344 0.555896
346 1 0.381793 0.574427 0.550207
334 1 0.409556 0.629572 0.554001
344 1 0.379808 0.613741 0.532788
345 1 0.390917 0.606838 0.545916
306 1 0.556713 0.592978 0.558427
307 1 0.545989 0.597003 0.571963
308 1 0.515009 0.612083 0.57486
316 1 0.544618 0.597822 0.534464
317 1 0.535242 0.603347 0.547677
318 1 0.504077 0.615954 0.550844
319 1 0.492682 0.619174 0.56436
320 1 0.461395 0.632675 0.56696
330 1 0.495023 0.624189 0.526921
331 1 0.487195 0.63108 0.540393
332 1 0.461087 0.653229 0.544503
333 1 0.44185 0.642962 0.555745
315 1 0.572382 0.577825 0.532111
353 1 0.404509 0.414519 0.613611
365 1 0.419914 0.412377 0.589309
352 1 0.399142 0.424316 0.599886
354 1 0.432966 0.395263 0.616146
355 1 0.4401 0.38669 0.629524
366 1 0.445863 0.390057 0.592138
367 1 0.454408 0.384885 0.605782
368 1 0.488205 0.376152 0.608747
369 1 0.497727 0.373929 0.621701
370 1 0.531946 0.372403 0.625126
377 1 0.467389 0.382751 0.581097
378 1 0.499285 0.371805 0.585067
379 1 0.511376 0.371783 0.598395
380 1 0.545262 0.371106 0.601071
381 1 0.555779 0.376777 0.614802
393 1 0.568946 0.374213 0.590562
382 1 0.584122 0.395865 0.617615
383 1 0.594302 0.402795 0.630869
394 1 0.594673 0.398913 0.593463
395 1 0.6007 0.408555 0.606819
405 1 0.605324 0.416959 0.582309
325 1 0.396312 0.562994 0.614025
326 1 0.377173 0.534032 0.617525
327 1 0.37601 0.521665 0.630794
337 1 0.38722 0.552876 0.590473
338 1 0.370818 0.522186 0.593519
339 1 0.369434 0.511538 0.607106
340 1 0.371121 0.475546 0.609214
341 1 0.373895 0.463984 0.622472
342 1 0.387809 0.431256 0.624412
349 1 0.360415 0.497623 0.584661
350 1 0.379206 0.467869 0.584587
351 1 0.381297 0.454617 0.598187
281 1 0.627182 0.504715 0.613232
282 1 0.614751 0.53708 0.615203
285 1 0.625069 0.515996 0.588952
286 1 0.607337 0.546831 0.591177
287 1 0.60269 0.556285 0.60449
396 1 0.621301 0.436635 0.608501
397 1 0.629862 0.447696 0.62165
398 1 0.635108 0.481364 0.623699
406 1 0.618769 0.448399 0.584065
407 1 0.622942 0.458793 0.597697
408 1 0.626836 0.49288 0.600033
283 1 0.613444 0.553131 0.628143
293 1 0.590842 0.562612 0.580154
324 1 0.398711 0.575571 0.60098
314 1 0.409803 0.581815 0.624769
323 1 0.416076 0.60557 0.598333
322 1 0.420003 0.621084 0.585785
313 1 0.431871 0.608669 0.621599
312 1 0.435234 0.621644 0.608519
290 1 0.545443 0.613733 0.623365
295 1 0.560325 0.595074 0.596052
296 1 0.530386 0.61238 0.59883
297 1 0.530041 0.625811 0.611452
299 1 0.481738 0.639159 0.63103
309 1 0.507369 0.620341 0.588699
310 1 0.476017 0.63572 0.590893
311 1 0.459473 0.644265 0.60325
321 1 0.450413 0.631138 0.580327
294 1 0.565686 0.58639 0.582862
288 1 0.580876 0.583813 0.607308
289 1 0.573765 0.593222 0.621005
514 1 0.412288 0.406501 0.663822
515 1 0.418984 0.396785 0.677319
526 1 0.421277 0.400259 0.639896
525 1 0.394823 0.422177 0.637489
356 1 0.473951 0.376572 0.632007
527 1 0.431288 0.396701 0.652824
516 1 0.448973 0.378196 0.67978
528 1 0.462524 0.383532 0.655649
529 1 0.473037 0.37819 0.66912
530 1 0.506566 0.377514 0.672566
539 1 0.48543 0.374686 0.645288
540 1 0.51999 0.372321 0.648704
541 1 0.529439 0.376136 0.662051
542 1 0.563033 0.386171 0.664808
549 1 0.54345 0.37709 0.638542
543 1 0.570731 0.396658 0.677992
550 1 0.57404 0.391626 0.641322
544 1 0.591867 0.423747 0.680134
551 1 0.583502 0.398725 0.654456
552 1 0.604122 0.425781 0.657206
328 1 0.371276 0.487543 0.633261
486 1 0.3925 0.551447 0.664922
487 1 0.383671 0.543245 0.677984
488 1 0.376949 0.50938 0.680682
498 1 0.385277 0.543549 0.641176
499 1 0.382183 0.531459 0.654262
500 1 0.374569 0.497638 0.656899
501 1 0.370062 0.48545 0.67018
502 1 0.378385 0.451319 0.672177
511 1 0.375203 0.47566 0.645808
512 1 0.38432 0.44208 0.648211
513 1 0.388602 0.432032 0.661607
553 1 0.608121 0.439109 0.669939
384 1 0.615842 0.430231 0.633099
431 1 0.623647 0.533264 0.677992
441 1 0.644731 0.48923 0.63678
443 1 0.625039 0.548054 0.654885
554 1 0.626799 0.467876 0.67241
557 1 0.618631 0.44204 0.646398
558 1 0.630677 0.474521 0.648499
559 1 0.629351 0.488755 0.661302
560 1 0.628807 0.523028 0.664484
432 1 0.60594 0.5623 0.680748
497 1 0.403854 0.572101 0.638135
474 1 0.426599 0.597818 0.672641
484 1 0.417068 0.590993 0.648658
485 1 0.410416 0.581391 0.662273
300 1 0.452053 0.620143 0.632015
456 1 0.557454 0.608865 0.647798
457 1 0.550766 0.616717 0.661754
458 1 0.519753 0.632342 0.664443
459 1 0.509217 0.633548 0.678022
460 1 0.474793 0.625154 0.680736
469 1 0.537718 0.620504 0.637126
470 1 0.50605 0.633508 0.640615
471 1 0.496256 0.634351 0.653851
472 1 0.463565 0.623484 0.656424
473 1 0.453833 0.618067 0.669782
483 1 0.443304 0.611864 0.645698
446 1 0.570133 0.605522 0.672445
444 1 0.599686 0.572618 0.656293
284 1 0.589888 0.577314 0.632134
445 1 0.592919 0.580145 0.669643
455 1 0.584479 0.587882 0.64523
492 1 0.397596 0.423696 0.712342
493 1 0.402558 0.414308 0.725912
504 1 0.403202 0.41238 0.688191
505 1 0.413637 0.406038 0.701423
494 1 0.42596 0.389645 0.728477
531 1 0.51524 0.38164 0.685898
506 1 0.439228 0.383442 0.704275
507 1 0.44854 0.381043 0.717883
508 1 0.482343 0.376314 0.720807
509 1 0.493884 0.371867 0.733813
510 1 0.528121 0.378879 0.736449
517 1 0.458746 0.374997 0.693396
518 1 0.493097 0.373291 0.696351
519 1 0.504253 0.375572 0.709773
520 1 0.536487 0.385777 0.712698
521 1 0.547596 0.388008 0.725728
532 1 0.548886 0.388615 0.68863
533 1 0.557812 0.393792 0.701945
522 1 0.577031 0.406668 0.728302
534 1 0.585169 0.415104 0.704677
535 1 0.594949 0.421483 0.717682
503 1 0.386057 0.443169 0.685643
465 1 0.392218 0.565019 0.725672
466 1 0.379001 0.533561 0.72818
476 1 0.394437 0.564434 0.68868
477 1 0.393176 0.553192 0.701755
478 1 0.37964 0.521756 0.704205
479 1 0.37549 0.511214 0.71747
480 1 0.376403 0.476722 0.720328
481 1 0.380129 0.466672 0.73363
489 1 0.376888 0.498728 0.693689
490 1 0.380088 0.464757 0.696618
491 1 0.383926 0.454919 0.709827
482 1 0.390458 0.4343 0.736635
545 1 0.599689 0.432365 0.693945
555 1 0.632582 0.478489 0.686113
421 1 0.627634 0.513343 0.726527
422 1 0.619068 0.547461 0.729611
425 1 0.629178 0.524426 0.702463
426 1 0.616059 0.555976 0.705075
536 1 0.617864 0.446996 0.720367
537 1 0.620979 0.457005 0.733665
546 1 0.623761 0.456627 0.696394
547 1 0.62709 0.467743 0.709673
548 1 0.629206 0.501536 0.71312
556 1 0.630599 0.512986 0.689014
427 1 0.612374 0.568076 0.718233
475 1 0.416635 0.591144 0.685875
464 1 0.401273 0.573453 0.712587
454 1 0.405735 0.583728 0.736168
463 1 0.423989 0.599036 0.709922
447 1 0.563337 0.614806 0.686109
462 1 0.433308 0.606346 0.696708
453 1 0.43283 0.604154 0.733482
436 1 0.543119 0.624055 0.713318
437 1 0.533017 0.624833 0.726867
438 1 0.498487 0.628068 0.728881
448 1 0.532411 0.631572 0.689195
449 1 0.52103 0.629606 0.7028
450 1 0.487185 0.62586 0.70499
451 1 0.475249 0.624338 0.718291
452 1 0.442834 0.612183 0.720454
461 1 0.464822 0.620455 0.694121
433 1 0.602323 0.573354 0.69471
435 1 0.574577 0.610033 0.710886
434 1 0.582477 0.601463 0.697239
428 1 0.594421 0.597992 0.721433
429 1 0.583547 0.603108 0.734996
654 2 0.411348 0.407093 0.777031
665 1 0.397245 0.423839 0.750222
666 1 0.41999 0.397837 0.752395
667 2 0.427956 0.391683 0.766536
495 1 0.43724 0.383123 0.741639
496 1 0.47091 0.373828 0.744094
668 2 0.460199 0.380607 0.769047
669 2 0.473078 0.378364 0.782511
670 2 0.508091 0.378201 0.78526
679 2 0.482784 0.375198 0.758308
680 2 0.516717 0.379707 0.76127
681 2 0.529886 0.380856 0.774423
682 2 0.56404 0.385106 0.77689
689 1 0.538044 0.385629 0.749472
690 1 0.571056 0.395258 0.752054
523 1 0.588951 0.410348 0.741496
691 2 0.583123 0.397915 0.766153
692 2 0.609647 0.420284 0.768696
467 1 0.375187 0.523047 0.741731
468 1 0.377306 0.488685 0.744761
626 2 0.38642 0.559998 0.776882
638 1 0.380292 0.547182 0.752054
639 2 0.378768 0.536179 0.766421
640 2 0.378684 0.501731 0.769276
641 2 0.382215 0.491135 0.782509
642 2 0.38644 0.457391 0.785308
651 2 0.37999 0.478408 0.758844
652 2 0.387519 0.445282 0.76165
653 2 0.391126 0.434974 0.775131
538 1 0.6286 0.490474 0.736896
700 2 0.618768 0.520966 0.778111
699 2 0.624966 0.486739 0.775108
698 2 0.625551 0.475609 0.761616
697 2 0.619545 0.442457 0.758462
423 1 0.615542 0.556784 0.74312
694 2 0.623351 0.46336 0.785539
524 1 0.611344 0.435506 0.744172
581 1 0.626407 0.499695 0.750785
582 1 0.619742 0.533188 0.75354
583 2 0.615566 0.544788 0.767788
693 2 0.616187 0.429597 0.782193
637 1 0.396745 0.577556 0.74939
614 2 0.415957 0.608788 0.784808
624 2 0.409099 0.596431 0.760485
625 2 0.399469 0.592576 0.774129
430 1 0.553494 0.61975 0.737677
439 1 0.485846 0.625249 0.742513
440 1 0.451982 0.615533 0.744123
596 2 0.564277 0.616692 0.763323
597 2 0.549712 0.619426 0.776306
598 2 0.515968 0.624491 0.778062
609 1 0.543351 0.624116 0.751052
610 1 0.508381 0.627113 0.753138
611 2 0.494961 0.625228 0.766858
612 2 0.4607 0.622063 0.769037
613 2 0.446968 0.624486 0.782286
623 2 0.440208 0.612772 0.758194
586 2 0.568465 0.607063 0.787223
584 2 0.60376 0.576686 0.771066
424 1 0.598668 0.586808 0.745906
585 2 0.593134 0.582765 0.784475
595 2 0.592764 0.596817 0.76044
655 2 0.420122 0.398525 0.790561
633 2 0.40416 0.415684 0.83764
644 2 0.403591 0.414951 0.801121
645 2 0.413854 0.40894 0.814317
632 2 0.398311 0.425328 0.824692
656 2 0.451748 0.385591 0.793272
634 2 0.428658 0.391863 0.840508
646 2 0.442211 0.389044 0.81685
647 2 0.452137 0.384941 0.830484
648 2 0.486643 0.376366 0.832917
657 2 0.463013 0.381848 0.806495
658 2 0.498056 0.377143 0.808668
659 2 0.50885 0.373021 0.821739
660 2 0.543031 0.374575 0.824753
661 2 0.554294 0.372185 0.838227
671 2 0.520231 0.375013 0.797938
672 2 0.555537 0.377635 0.800896
673 2 0.566127 0.379866 0.814418
683 2 0.5766 0.388226 0.790015
684 2 0.603241 0.409168 0.792852
674 2 0.595799 0.397745 0.817249
675 2 0.602654 0.405428 0.831382
685 2 0.609002 0.417849 0.806361
627 2 0.385617 0.547844 0.789808
628 2 0.383724 0.513883 0.793038
606 2 0.381213 0.538774 0.841309
616 2 0.391886 0.569189 0.800773
617 2 0.384263 0.559256 0.813949
618 2 0.380531 0.525554 0.816775
619 2 0.379038 0.515225 0.83008
620 2 0.381079 0.480252 0.833188
629 2 0.378966 0.503202 0.80626
630 2 0.384024 0.468922 0.808913
631 2 0.386334 0.458097 0.82242
643 2 0.389842 0.447191 0.798259
571 2 0.613223 0.529033 0.791468
572 2 0.603054 0.561589 0.794551
696 2 0.619537 0.507657 0.802037
695 2 0.620187 0.473748 0.79932
561 2 0.625355 0.505961 0.839285
565 2 0.617631 0.516742 0.815368
566 2 0.605934 0.547823 0.818619
676 2 0.615593 0.437876 0.83408
686 2 0.618447 0.450157 0.809743
687 2 0.620918 0.460433 0.823167
688 2 0.625784 0.49463 0.825935
567 2 0.600311 0.557535 0.832179
573 2 0.59474 0.567067 0.807927
605 2 0.383914 0.573342 0.838224
604 2 0.388528 0.582391 0.82468
615 2 0.409989 0.59796 0.798348
603 2 0.412993 0.608323 0.821877
602 2 0.42529 0.612297 0.809187
599 2 0.50214 0.621761 0.791323
600 2 0.468964 0.628523 0.793468
576 2 0.532051 0.616586 0.82576
577 2 0.52193 0.624159 0.838659
578 2 0.487827 0.631073 0.841321
587 2 0.554981 0.606848 0.799984
588 2 0.522907 0.617748 0.802077
589 2 0.511546 0.623361 0.814788
590 2 0.477997 0.629829 0.817353
591 2 0.464691 0.627248 0.830471
592 2 0.431643 0.619063 0.833012
601 2 0.456881 0.626311 0.806685
575 2 0.562032 0.598916 0.823963
574 2 0.571418 0.592598 0.810963
568 2 0.580683 0.586109 0.834902
649 2 0.49499 0.364475 0.845919
635 2 0.436002 0.375909 0.852759
636 2 0.469306 0.367251 0.855423
650 2 0.5296 0.358965 0.846909
662 2 0.584455 0.388554 0.842144
663 2 0.596218 0.397583 0.855295
664 2 0.612813 0.427374 0.857971
621 2 0.381489 0.467512 0.846401
622 2 0.386482 0.433413 0.847429
607 2 0.375138 0.525201 0.853821
608 2 0.377385 0.490354 0.856645
562 2 0.611126 0.537835 0.842839
677 2 0.621423 0.449338 0.847348
563 2 0.60854 0.551958 0.855528
678 2 0.63449 0.481878 0.848685
594 2 0.392399 0.596297 0.847996
593 2 0.418902 0.618196 0.845981
570 2 0.547686 0.623224 0.848394
579 2 0.472823 0.638269 0.853622
580 2 0.438355 0.634394 0.855353
569 2 0.573663 0.598841 0.847938
564 2 0.590177 0.580201 0.858318
ITEM: TIMESTEP
6000
ITEM: NUMBER OF ATOMS
693
ITEM: BOX BOUNDS pp pp pp
-2.0000000000000000e+01 2.0000000000000000e+01
-2.0000000000000000e+01 2.0000000000000000e+01
-3.0000000000000000e+01 7.0000000000000000e+01
ITEM: ATOMS id type xs ys zs
106 3 0.412081 0.378805 0.304426
105 3 0.38765 0.4028 0.302712
119 3 0.481201 0.357157 0.310722
129 3 0.541432 0.367772 0.302275
120 3 0.516336 0.365383 0.312114
130 3 0.569798 0.386174 0.304919
78 3 0.381434 0.537987 0.303214
91 3 0.372113 0.460907 0.309327
92 3 0.380506 0.42782 0.312418
21 3 0.63143 0.503868 0.301866
22 3 0.633052 0.537789 0.303582
137 3 0.613468 0.44691 0.310169
138 3 0.622945 0.480446 0.311385
77 3 0.396816 0.568672 0.300678
64 3 0.419763 0.58341 0.309992
63 3 0.444732 0.606253 0.308204
49 3 0.547375 0.626291 0.299695
50 3 0.514969 0.634613 0.302633
36 3 0.568497 0.616786 0.310423
51 3 0.501309 0.627072 0.315147
35 3 0.601739 0.604453 0.309574
84 3 0.401503 0.403605 0.352097
94 3 0.409007 0.393882 0.328099
95 3 0.418602 0.38713 0.34158
85 3 0.409048 0.396263 0.365705
107 3 0.425831 0.37787 0.317235
96 3 0.44973 0.374835 0.344398
97 3 0.4612 0.371424 0.357887
98 3 0.49491 0.363432 0.359872
108 3 0.458191 0.366635 0.320634
109 3 0.471317 0.369976 0.333761
110 3 0.505789 0.370729 0.336059
111 3 0.518471 0.368148 0.349469
112 3 0.55037 0.37981 0.351819
121 3 0.527397 0.373155 0.32516
122 3 0.559756 0.385644 0.327949
113 3 0.558829 0.388461 0.365044
86 3 0.438971 0.380981 0.368105
123 3 0.567606 0.395539 0.341205
124 3 0.592273 0.418814 0.343693
131 3 0.579624 0.398593 0.317471
125 3 0.599566 0.428456 0.356838
132 3 0.600365 0.425473 0.320149
114 3 0.586965 0.409384 0.36728
93 3 0.386767 0.420069 0.326059
56 3 0.400192 0.554817 0.34996
66 3 0.395203 0.541286 0.326379
67 3 0.38924 0.533163 0.339396
68 3 0.375862 0.501477 0.342594
69 3 0.37444 0.4908 0.355907
70 3 0.37538 0.45597 0.359071
79 3 0.384249 0.520141 0.315833
80 3 0.37684 0.486971 0.31868
81 3 0.37642 0.478147 0.332142
82 3 0.380699 0.444081 0.335477
83 3 0.382838 0.433622 0.348905
57 3 0.396484 0.54336 0.36314
58 3 0.382014 0.513471 0.366421
11 3 0.625694 0.537338 0.340425
23 3 0.627107 0.551387 0.316374
126 3 0.61783 0.457955 0.359281
133 3 0.605382 0.437547 0.333119
134 3 0.618427 0.469831 0.335312
135 3 0.621751 0.480342 0.348592
136 3 0.627555 0.514391 0.351311
139 3 0.622317 0.492835 0.324412
140 3 0.625844 0.527706 0.32705
12 3 0.614966 0.570041 0.343402
5 3 0.624619 0.524873 0.364585
6 3 0.6207 0.55843 0.366848
65 3 0.416588 0.570132 0.32349
55 3 0.422232 0.581349 0.347272
54 3 0.433111 0.588084 0.334039
42 3 0.441068 0.595442 0.357484
27 3 0.570883 0.619292 0.34831
28 3 0.537042 0.627473 0.350257
37 3 0.558783 0.624164 0.323547
38 3 0.524282 0.628568 0.326279
39 3 0.513819 0.629378 0.33964
40 3 0.482046 0.618602 0.342362
41 3 0.470572 0.612723 0.355502
52 3 0.469581 0.61525 0.317958
53 3 0.460986 0.60964 0.331517
26 3 0.580356 0.614692 0.335004
29 3 0.525577 0.62934 0.363741
30 3 0.490937 0.624439 0.366261
13 3 0.611905 0.580397 0.356569
14 3 0.590387 0.607021 0.359198
24 3 0.615289 0.583373 0.31991
25 3 0.603968 0.589185 0.332848
72 3 0.393685 0.416002 0.375938
73 3 0.400258 0.408443 0.3894
246 1 0.418541 0.395814 0.415524
245 1 0.392821 0.419643 0.41295
74 3 0.426926 0.38655 0.391771
75 1 0.437594 0.381131 0.404705
76 1 0.469999 0.36857 0.407391
87 3 0.44819 0.377253 0.381152
88 3 0.481784 0.368739 0.383451
89 3 0.493712 0.366737 0.396516
90 3 0.526678 0.375814 0.398976
99 3 0.505959 0.365553 0.372851
100 3 0.539541 0.373491 0.375187
101 3 0.548318 0.381293 0.388065
269 1 0.537113 0.377728 0.412178
270 1 0.566677 0.39528 0.414643
102 3 0.578848 0.399498 0.390474
103 1 0.58393 0.410202 0.403763
115 3 0.594339 0.418231 0.380498
45 3 0.398806 0.557121 0.387224
46 3 0.381251 0.527132 0.390608
47 1 0.376208 0.518628 0.404229
48 1 0.370357 0.484675 0.407001
59 3 0.375862 0.504213 0.379971
60 3 0.371213 0.470399 0.382935
61 3 0.370667 0.460189 0.396591
62 3 0.384803 0.427898 0.399522
71 3 0.377439 0.447098 0.372947
218 1 0.381869 0.541697 0.414074
231 1 0.37132 0.473739 0.420403
1 3 0.628185 0.513392 0.388329
2 3 0.623544 0.547313 0.391139
3 1 0.620721 0.558783 0.404256
7 3 0.616446 0.568258 0.380245
104 1 0.603602 0.438359 0.406913
116 3 0.614578 0.445375 0.383089
117 3 0.619223 0.45636 0.396463
118 3 0.628251 0.489392 0.398438
127 3 0.621352 0.468069 0.372786
128 3 0.627531 0.501725 0.375234
161 1 0.630174 0.501545 0.412192
162 1 0.627894 0.536733 0.415025
277 1 0.61139 0.446887 0.420247
44 3 0.407262 0.563962 0.373696
34 3 0.41296 0.57529 0.397403
43 3 0.430283 0.589661 0.37066
217 1 0.401524 0.570302 0.410695
33 3 0.438514 0.599214 0.394539
10 3 0.557929 0.623796 0.398379
16 3 0.547737 0.626272 0.374587
17 3 0.534732 0.62709 0.387489
18 3 0.500503 0.627499 0.389765
19 1 0.487683 0.625617 0.402546
20 1 0.456599 0.611127 0.405233
31 3 0.477622 0.623524 0.379084
32 3 0.446151 0.608364 0.38112
189 1 0.544845 0.625902 0.41135
190 1 0.509736 0.627155 0.413655
15 3 0.580906 0.614705 0.37242
203 1 0.446795 0.605564 0.418303
4 1 0.601833 0.587257 0.407451
8 3 0.596444 0.597508 0.382897
9 3 0.587305 0.604947 0.396195
175 1 0.594906 0.598208 0.420356
234 1 0.407402 0.403349 0.438823
235 1 0.415811 0.397933 0.452213
224 1 0.400385 0.415007 0.463527
247 1 0.42798 0.389637 0.428802
259 1 0.479951 0.366542 0.420711
236 1 0.445677 0.379768 0.455695
237 1 0.456448 0.378392 0.468578
248 1 0.45736 0.371803 0.431761
249 1 0.468716 0.372042 0.444823
250 1 0.503516 0.371199 0.447226
251 1 0.51294 0.373906 0.460748
252 1 0.546493 0.383399 0.463287
260 1 0.514589 0.37078 0.423228
261 1 0.525908 0.373977 0.436275
262 1 0.556548 0.388521 0.438924
238 1 0.490262 0.372522 0.47152
263 1 0.564929 0.395594 0.452257
264 1 0.590236 0.417812 0.455218
271 1 0.574218 0.402134 0.427844
272 1 0.596895 0.427439 0.430674
265 1 0.595819 0.427273 0.468435
273 1 0.602709 0.437018 0.44468
206 1 0.386187 0.553291 0.438054
207 1 0.381032 0.544595 0.451417
208 1 0.372494 0.511368 0.454582
209 1 0.370363 0.501553 0.468077
219 1 0.37742 0.53126 0.427414
220 1 0.370683 0.497204 0.430795
221 1 0.372545 0.48726 0.444144
222 1 0.379086 0.454249 0.44762
223 1 0.382418 0.444011 0.461177
232 1 0.379992 0.440173 0.423421
233 1 0.386353 0.432174 0.436827
210 1 0.374998 0.467761 0.471049
151 1 0.62647 0.53617 0.452213
163 1 0.622695 0.548821 0.428398
274 1 0.618137 0.468206 0.447463
275 1 0.621372 0.478061 0.460617
276 1 0.627468 0.5131 0.463181
278 1 0.623178 0.479753 0.422951
279 1 0.622042 0.490772 0.436443
280 1 0.624965 0.525334 0.439034
152 1 0.613536 0.567656 0.455227
266 1 0.614579 0.456865 0.47119
164 1 0.607848 0.578991 0.431024
153 1 0.605643 0.575339 0.468807
196 1 0.392229 0.565943 0.462142
194 1 0.423243 0.598825 0.445685
195 1 0.415912 0.59155 0.459371
204 1 0.417557 0.585811 0.421284
205 1 0.409599 0.579041 0.434816
182 1 0.43129 0.608808 0.469895
167 1 0.561534 0.609908 0.460182
168 1 0.53063 0.624334 0.462729
176 1 0.565216 0.616278 0.422553
177 1 0.553569 0.618685 0.436179
178 1 0.519976 0.625549 0.438414
179 1 0.508219 0.626177 0.451497
180 1 0.474169 0.623366 0.454243
181 1 0.463267 0.621665 0.467649
191 1 0.498267 0.625692 0.427104
192 1 0.464271 0.61782 0.429619
193 1 0.454608 0.61464 0.44361