LAMMPS (30 Jul 2021)
OMP_NUM_THREADS environment is not set. Defaulting to 1 thread. (src/comm.cpp:98)
  using 1 OpenMP thread(s) per MPI task
Reading data file ...
  orthogonal box = (-10.000000 -10.000000 -30.000000) to (10.000000 10.000000 30.000000)
  1 by 2 by 5 MPI processor grid
  reading atoms ...
  972 atoms
  scanning bonds ...
  2 = max bonds/atom
  scanning angles ...
  1 = max angles/atom
  reading bonds ...
  648 bonds
  reading angles ...
  324 angles
Finding 1-2 1-3 1-4 neighbors ...
  special bond factors lj:    0        0        0       
  special bond factors coul:  0        0        0       
     2 = max # of 1-2 neighbors
     1 = max # of 1-3 neighbors
     1 = max # of 1-4 neighbors
     2 = max # of special neighbors
  special bonds CPU = 0.004 seconds
  read_data CPU = 0.021 seconds
Finding SHAKE clusters ...
       0 = # of size 2 clusters
       0 = # of size 3 clusters
       0 = # of size 4 clusters
     324 = # of frozen angles
  find clusters CPU = 0.000 seconds
PPPM initialization ...
  extracting TIP4P info from pair style
  using 12-bit tables for long-range coulomb (src/kspace.cpp:340)
  G vector (1/distance) = 0.22489658
  grid = 10 10 24
  stencil order = 5
  estimated absolute RMS force accuracy = 0.023206464
  estimated relative force accuracy = 6.9885576e-05
  using double precision KISS FFT
  3d grid and FFT values/proc = 2244 300
Neighbor list info ...
  update every 1 steps, delay 10 steps, check yes
  max neighbors/atom: 2000, page size: 100000
  master list distance cutoff = 14.3092
  ghost atom cutoff = 14.3092
  binsize = 7.1546, bins = 3 3 9
  1 neighbor lists, perpetual/occasional/extra = 1 0 0
  (1) pair lj/cut/tip4p/long, perpetual
      attributes: half, newton on
      pair build: half/bin/newton
      stencil: half/bin/3d
      bin: standard
Setting up Verlet run ...
  Unit style    : real
  Current step  : 0
  Time step     : 2
Per MPI rank memory allocation (min/avg/max) = 8.205 | 8.450 | 8.900 Mbytes
Step Temp E_pair E_mol TotEng Press 
       0    545.00564   -2398.4298            0   -1347.3405   -5275.0443 
    1000    372.56399   -3221.2257            0   -2502.7047    -558.8944 
    2000    365.19558    -3233.687            0   -2529.3766    291.14879 
    3000    361.07747   -3193.9296            0   -2497.5613   -103.40347 
    4000    370.24279   -3274.3076            0   -2560.2633    18.588249 
    5000    371.85745    -3209.083            0   -2491.9246    9.7625656 
    6000     360.3057   -3189.7206            0   -2494.8407   -136.48559 
    7000    373.45514   -3265.1201            0   -2544.8804    251.12274 
    8000    364.59323   -3259.0024            0   -2555.8537   -313.87258 
    9000    362.71467   -3211.0169            0   -2511.4911   -291.21322 
   10000    363.55401   -3185.5056            0   -2484.3612   -65.493725 
Loop time of 35.9872 on 10 procs for 10000 steps with 972 atoms

Performance: 48.017 ns/day, 0.500 hours/ns, 277.876 timesteps/s
99.7% CPU use with 10 MPI tasks x 1 OpenMP threads

MPI task timing breakdown:
Section |  min time  |  avg time  |  max time  |%varavg| %total
---------------------------------------------------------------
Pair    | 0.011448   | 10.744     | 28.132     | 350.2 | 29.86
Bond    | 0.00075132 | 0.00096215 | 0.0013059  |   0.0 |  0.00
Kspace  | 3.2103     | 20.239     | 30.749     | 250.6 | 56.24
Neigh   | 2.2951     | 2.3048     | 2.3151     |   0.4 |  6.40
Comm    | 0.74435    | 1.2241     | 1.5949     |  30.7 |  3.40
Output  | 0.00095021 | 0.0024838  | 0.0026623  |   1.0 |  0.01
Modify  | 0.90065    | 1.4423     | 2.1532     |  43.6 |  4.01
Other   |            | 0.02971    |            |       |  0.08

Nlocal:        97.2000 ave         240 max           0 min
Histogram: 4 0 0 1 1 0 2 0 1 1
Nghost:        2987.40 ave        4356 max        1424 min
Histogram: 2 2 0 0 0 0 2 0 2 2
Neighs:        43780.4 ave      120062 max           0 min
Histogram: 4 2 0 0 0 0 1 1 1 1

Total # of neighbors = 437804
Ave neighs/atom = 450.41564
Ave special neighs/atom = 2.0000000
Neighbor list builds = 918
Dangerous builds = 433
Replicating atoms ...
  orthogonal box = (-10.000000 -10.000000 -30.000000) to (30.000000 30.000000 30.000000)
  1 by 2 by 5 MPI processor grid
  3888 atoms
  2592 bonds
  1296 angles
Finding 1-2 1-3 1-4 neighbors ...
  special bond factors lj:    0        0        0       
  special bond factors coul:  0        0        0       
     2 = max # of 1-2 neighbors
     1 = max # of 1-3 neighbors
     1 = max # of 1-4 neighbors
     2 = max # of special neighbors
  special bonds CPU = 0.001 seconds
  replicate CPU = 0.003 seconds
Finding SHAKE clusters ...
       0 = # of size 2 clusters
       0 = # of size 3 clusters
       0 = # of size 4 clusters
    1296 = # of frozen angles
  find clusters CPU = 0.001 seconds
PPPM initialization ...
  extracting TIP4P info from pair style
  using 12-bit tables for long-range coulomb (src/kspace.cpp:340)
  G vector (1/distance) = 0.2200007
  grid = 18 18 24
  stencil order = 5
  estimated absolute RMS force accuracy = 0.031756282
  estimated relative force accuracy = 9.56331e-05
  using double precision KISS FFT
  3d grid and FFT values/proc = 4400 972
Setting up Verlet run ...
  Unit style    : real
  Current step  : 10000
  Time step     : 2
Per MPI rank memory allocation (min/avg/max) = 8.538 | 10.00 | 11.65 Mbytes
Step Temp E_pair E_mol TotEng Press 
   10000    363.13307   -12742.667            0   -9938.0891   -67.551946 
   11000    364.63698   -12990.104            0    -10173.91     182.2706 
   12000    361.82412   -12940.416            0   -10145.948    58.132977 
   13000    360.75639   -12881.797            0   -10095.575    -62.48044 
   14000    360.98355   -12926.607            0    -10138.63    97.475539 
   15000    372.58567    -12956.79            0   -10079.207    -71.28781 
   16000    363.11083    -12839.74            0   -10035.334   -250.29509 
   17000     363.1713    -13009.93            0   -10205.057   -242.93113 
   18000    368.38072   -12939.747            0    -10094.64   -49.007848 
   19000    361.92088   -12859.842            0   -10064.627   -232.54902 
   20000    365.45786   -12955.616            0   -10133.083   -105.37471 
   21000    368.62838   -13031.188            0   -10184.169   -90.464216 
   22000    363.81287   -12961.186            0   -10151.358   -274.77258 
   23000    371.04136   -12842.961            0   -9977.3056   -457.97158 
   24000    356.69798   -12796.103            0   -10041.225   -189.69486 
   25000    365.35996   -12928.864            0   -10107.087   -28.251698 
   26000    362.99808   -12891.016            0    -10087.48   -49.660251 
   27000    367.72638   -12913.567            0   -10073.514      -315.94 
   28000    358.86811   -12947.298            0    -10175.66    181.79377 
   29000    359.90621   -12963.864            0   -10184.208   -253.89633 
   30000    372.11044   -13015.756            0   -10141.843   -82.232936 
   31000    363.09749   -12828.674            0   -10024.371    94.640804 
   32000    361.80056   -12907.634            0   -10113.348   -76.137822 
   33000    357.75661   -12906.769            0   -10143.715    83.155132 
   34000    360.74044   -12838.795            0   -10052.696   -144.12007 
   35000    365.00783   -12912.885            0   -10093.828   -32.467052 
   36000    365.72246    -12965.63            0   -10141.053   -147.63578 
   37000    362.17776   -12919.659            0   -10122.459   -96.657923 
   38000    359.49629    -12856.33            0    -10079.84   -16.365631 
   39000     368.4036   -12906.723            0   -10061.439   -199.65452 
   40000    356.20539   -12818.785            0   -10067.711   -208.13202 
   41000    361.60383   -12980.647            0    -10187.88     -3.22024 
   42000    355.59983   -12841.033            0   -10094.637   -29.468354 
   43000     359.0955    -12903.89            0   -10130.496    96.838278 
   44000    359.05621   -12827.785            0   -10054.694   -243.39314 
   45000    374.59947   -13047.519            0   -10154.383   -167.46453 
   46000    364.09387   -12916.881            0   -10104.883    129.39391 
   47000     360.3067   -12807.383            0   -10024.634   -86.548774 
   48000    360.92796   -12869.921            0   -10082.374   -69.995892 
   49000    365.11835   -12884.148            0   -10064.237    64.583922 
   50000    360.93445   -12910.181            0   -10122.584   -383.96646 
   51000    362.19955   -12879.847            0   -10082.479   -28.650169 
   52000    363.83705   -12976.433            0   -10166.418    22.953908 
   53000    359.70193   -12944.905            0   -10166.827   -117.44755 
   54000     373.0914   -12906.619            0    -10025.13    -237.4457 
   55000    366.53297   -12961.645            0   -10130.809     211.2461 
   56000    365.57499   -12930.067            0    -10106.63   -111.66609 
   57000     363.4408   -12959.951            0   -10152.996    244.90481 
   58000    361.90322   -12768.131            0   -9973.0516   -292.19135 
   59000    358.25437    -12867.32            0   -10100.422    122.37956 
   60000    367.39227   -12981.029            0   -10143.556   -132.89225 
   61000    358.62002   -12882.382            0    -10112.66   -218.58493 
   62000    357.25065   -12865.175            0   -10106.028   -416.48186 
   63000    365.43326   -12863.091            0   -10040.748    -150.6442 
   64000    366.39414   -12862.727            0   -10032.963   -250.76702 
   65000     363.1425   -12836.415            0   -10031.764    124.05661 
   66000     359.9586   -12868.119            0   -10088.058   -10.640187 
   67000    353.10171   -12883.222            0   -10156.119   -395.20685 
   68000     369.1665   -13041.429            0   -10190.254    86.811403 
   69000    367.47711   -12965.446            0   -10127.318   -109.53893 
   70000     362.3952   -12974.646            0   -10175.767   -71.844213 
   71000    358.08883   -12852.807            0   -10087.187    97.447849 
   72000    361.18489   -12892.259            0   -10102.727   -384.80428 
   73000    363.14628   -12889.906            0   -10085.226   -133.73236 
   74000    356.80546   -12864.683            0   -10108.975   -113.25291 
   75000    352.31561   -12840.625            0   -10119.593   -205.38089 
   76000    358.98657   -12885.108            0   -10112.554   -117.95804 
   77000    370.33013   -12914.478            0   -10054.315   -323.77767 
   78000    363.26699    -12912.61            0   -10106.998   -63.887862 
   79000    364.54971   -12898.483            0   -10082.964    -134.5158 
   80000    370.06166   -12952.147            0   -10094.058      -99.164 
   81000    366.30563   -12938.673            0   -10109.593   -71.298184 
   82000     361.8993   -12887.002            0   -10091.952   -76.748048 
   83000    367.31504   -12933.576            0     -10096.7     55.63725 
   84000    359.83802   -12851.792            0   -10072.663   -353.57101 
   85000    362.56997   -12858.969            0    -10058.74    12.610752 
   86000    359.02148   -12884.788            0   -10111.965    40.398004 
   87000    354.77248   -12839.861            0   -10099.854   -193.34082 
   88000    361.55665   -12952.354            0   -10159.952    34.397503 
   89000    365.71676   -13054.056            0   -10229.524    11.063601 
   90000    369.05045   -12943.739            0    -10093.46    92.733466 
   91000    364.23616   -12887.129            0   -10074.031   -209.05858 
   92000    356.85614   -12807.323            0   -10051.223   -224.39963 
   93000    363.47232   -12829.287            0   -10022.089   -125.76583 
   94000    358.34486   -12813.925            0   -10046.328   -19.399866 
   95000    361.86974    -12985.42            0   -10190.599   -303.73583 
   96000    361.10388   -12871.735            0   -10082.829   -373.00914 
   97000    362.98972   -12907.748            0   -10104.277   -234.54847 
   98000    360.70787   -12841.898            0   -10056.051   -156.13108 
   99000    362.23546   -12851.611            0   -10053.965   -252.53764 
  100000    369.15866   -12981.744            0   -10130.628   -196.20667 
  101000    360.03791   -12875.429            0   -10094.756   -273.15218 
  102000    365.88514   -12909.824            0   -10083.992    -429.2691 
  103000    369.23316   -12972.742            0   -10121.052   -202.90659 
  104000    369.50398   -12862.978            0   -10009.196   -159.77539 
  105000    366.79004   -12937.187            0   -10104.365   -189.27241 
  106000    366.45443   -12942.161            0   -10111.932   -266.39193 
  107000    369.73931   -12965.391            0   -10109.791    45.641995 
  108000    366.83497   -12982.909            0   -10149.741   -185.51698 
  109000    367.72935   -12942.822            0   -10102.746    120.81929 
  110000    358.82954    -12835.12            0    -10063.78   -312.15329 
Loop time of 1399.38 on 10 procs for 100000 steps with 3888 atoms

Performance: 12.348 ns/day, 1.944 hours/ns, 71.460 timesteps/s
99.7% CPU use with 10 MPI tasks x 1 OpenMP threads

MPI task timing breakdown:
Section |  min time  |  avg time  |  max time  |%varavg| %total
---------------------------------------------------------------
Pair    | 0.1962     | 448.62     | 1197.5     |2271.6 | 32.06
Bond    | 0.0076589  | 0.010345   | 0.014502   |   2.1 |  0.00
Kspace  | 73.59      | 809.9      | 1249.6     |1663.2 | 57.88
Neigh   | 93.804     | 93.947     | 94.153     |   1.1 |  6.71
Comm    | 12.356     | 21.592     | 28.166     | 120.8 |  1.54
Output  | 0.025083   | 0.037162   | 0.038592   |   2.1 |  0.00
Modify  | 15.896     | 24.891     | 42.991     | 203.8 |  1.78
Other   |            | 0.3881     |            |       |  0.03

Nlocal:        388.800 ave         911 max           0 min
Histogram: 4 0 0 0 1 1 2 0 0 2
Nghost:        5019.60 ave        7157 max        2436 min
Histogram: 2 2 0 0 0 0 1 1 2 2
Neighs:        175501.0 ave      462994 max           0 min
Histogram: 4 1 1 0 0 0 0 2 0 2

Total # of neighbors = 1755011
Ave neighs/atom = 451.39172
Ave special neighs/atom = 2.0000000
Neighbor list builds = 9863
Dangerous builds = 8598
Total wall time: 0:23:55
