LAMMPS data file via write_data, version 30 Jul 2021, timestep = 121000

5000 atoms
1 atom types

-20 20 xlo xhi
-20 20 ylo yhi
-20 20 zlo zhi

Masses

1 12.0107

Atoms # full

2509 0 1 0 -18.215776068503647 -17.818238761449578 -17.27319649604337 0 0 1
353 0 1 0 -16.35868090198962 -15.850751786022764 -14.120729597462173 0 0 0
2436 0 1 0 -15.293883135378199 -15.11626047150992 -14.629940099996116 1 0 1
2649 0 1 0 -18.24363511228549 -17.162060372648487 -13.30563476526452 0 1 0
2591 0 1 0 -17.316763416528154 -17.274045498913104 -16.08203857236706 0 1 0
136 0 1 0 -17.454161831330737 -16.88241450413251 -14.66587659210386 1 0 0
120 0 1 0 -14.769903049674749 -17.1343732123265 -15.890612326518273 0 0 0
140 0 1 0 -15.585044266857675 -15.35108988691763 -18.750513057113757 0 0 0
34 0 1 0 -15.859397093398437 -16.854469218390555 -18.096933204020644 0 0 0
2091 0 1 0 -15.988786533271195 -17.18626882153201 -16.61147327112889 0 0 1
2545 0 1 0 -18.273841497454434 -16.051096917775933 -18.98656077117051 0 0 1
2481 0 1 0 -18.963276723403926 -17.04998006519491 -18.197001019878865 0 0 1
186 0 1 0 -18.15264398122073 -19.25981033233791 -17.600385971701805 0 0 0
2190 0 1 0 -15.471490060094531 -17.999570297305176 -18.94583526604021 0 0 1
206 0 1 0 -14.928407778664047 -13.82050476095821 -12.611311716129523 0 0 0
179 0 1 0 -14.810074139445756 -13.851025185942953 -14.007830147504265 0 0 0
2430 0 1 0 -16.96069426814447 -15.955863559869977 -18.8583639013199 0 0 1
442 0 1 0 -19.69868987264109 -17.21968025708109 -12.933352964908401 0 0 0
663 0 1 0 -14.551698778897789 -19.556007505949307 -14.790511291265839 0 0 0
513 0 1 0 -14.629948110205 -14.413893856545775 -18.887315818867197 0 0 0
3366 0 1 0 -17.54802266698219 -19.764545306634474 -18.750375853123117 1 1 0
3467 0 1 0 -16.489472793663417 -15.7722944447957 -12.664239781249416 1 1 0
907 0 1 0 -17.393986003860405 -16.808547102566404 -12.199179651596628 1 0 0
479 0 1 0 -14.47645720549328 -19.73546487393634 -13.329424461765273 0 0 0
199 0 1 0 -14.354179218986548 -15.78627501865426 -15.471441985711664 0 0 0
2275 0 1 0 -17.60477605885632 -18.928168163055528 -19.938194950924757 0 0 1
381 0 1 0 -16.03160169685145 -14.573138533371036 -12.02998487600621 0 0 0
319 0 1 0 -18.958172551682082 -15.179210087888494 -19.852922295721637 0 0 0
2495 0 1 0 -14.330563235725922 -18.830793787538916 -18.70144524761385 0 0 1
991 0 1 0 -14.061632675137307 -18.3470216818671 -15.48650026773859 1 0 0
2375 0 1 0 -12.8716990103717 -18.34333688237056 -18.41649471176683 0 0 1
382 0 1 0 -11.068292918430153 -16.0063782827406 -16.088421402468903 0 0 0
2202 0 1 0 -11.111870247448236 -16.77869330040235 -17.277058358077426 0 0 1
3531 0 1 0 -12.728651833587348 -18.43814074684807 -15.993404115263877 0 1 0
2197 0 1 0 -11.974188232112278 -14.927270321858128 -15.601059559696479 0 0 1
2287 0 1 0 -12.322645325519629 -17.723096803755194 -17.211962923769256 0 0 1
2166 0 1 0 -10.03575678886309 -16.128532114960816 -15.037266099232275 0 0 1
246 0 1 0 -10.069211752846684 -14.84496372011184 -14.321682009740226 0 0 0
2353 0 1 0 -9.862865713220653 -16.69739515643201 -18.135921468261376 0 0 1
2284 0 1 0 -13.356318293189915 -14.928108521941173 -16.08537727739045 0 0 1
287 0 1 0 -11.209698182114755 -14.161477945093491 -14.628657603459022 0 0 0
484 0 1 0 -9.513561733151315 -17.18514619765621 -14.348881814389978 0 0 0
3354 0 1 0 -9.178915223839152 -14.413492007867513 -13.238965529981417 0 1 0
2958 0 1 0 -9.413854860096073 -18.49125133037972 -14.823299275867347 0 1 0
2935 0 1 0 -9.170066754392996 -18.692747564615374 -16.213533000513543 0 1 0
1147 0 1 0 -9.244682480913655 -16.87084970220484 -12.95427945549074 0 0 0
468 0 1 0 -12.015055423919403 -19.374340483947723 -19.03910006806217 0 0 0
4553 0 1 0 -11.900501387690694 -19.507953422303423 -15.46049240154797 0 1 1
406 0 1 0 -11.987703959093524 -19.031664464267816 -12.933334125504691 0 0 0
4678 0 1 0 -9.978243909025505 -19.52158879211795 -17.071904576777126 0 1 1
4802 0 1 0 -10.108515451670337 -16.55388947264152 -19.552203083328372 0 1 1
2735 0 1 0 -11.348826959060917 -19.541513331914715 -14.144383091485206 1 1 0
255 0 1 0 -9.786376685475249 -19.503184268777346 -18.4987932270862 0 0 0
4742 0 1 0 -10.693622177992472 -18.8914735707989 -19.361053501950543 0 1 1
3224 0 1 0 -13.265518312691484 -19.60472644904723 -12.525133279581691 1 1 0
134 0 1 0 -9.894303499421458 -19.651852028575927 -14.181195240202275 0 0 0
228 0 1 0 -13.75645580053737 -13.753311246383163 -16.820683927185016 0 0 0
44 0 1 0 -13.79410610812713 -13.510967797204861 -18.254037815207205 0 0 0
3519 0 1 0 -11.256781834412172 -17.964682591298214 -12.137581952850372 0 1 0
985 0 1 0 19.42654934718173 -1.4424473950089116 -12.432712572676092 -1 0 0
2750 0 1 0 -8.500390978237387 -15.563879978627314 -12.662357495729236 0 1 0
231 0 1 0 -8.50774794893662 -17.062575952670763 -17.89262873846292 0 0 0
4334 0 1 0 -7.255762599323107 -15.745282783444798 -19.635272596029438 0 1 1
384 0 1 0 -8.172962010789847 -17.918813775850527 -16.84531452959521 0 0 0
2650 0 1 0 -7.549522538198004 -16.963643059773116 -18.987820967688734 0 1 0
2736 0 1 0 -6.799072978948964 -18.287457620923263 -16.58292280124326 0 1 0
2540 0 1 0 -4.779217615052909 -18.527167509578625 -18.119541699006028 0 0 1
2769 0 1 0 -3.4436755019503837 -18.26174304130092 -17.782438225238074 0 1 0
2110 0 1 0 -5.8583930872044245 -19.092368306479454 -17.328004452349653 0 0 1
51 0 1 0 -4.453145846453444 -18.36633101840738 -13.251794473830088 0 0 0
522 0 1 0 -6.156168833931935 -16.341511751506577 -12.904511031362722 0 0 0
180 0 1 0 -3.587741305056252 -19.27951040505166 -15.324879245893829 0 0 0
461 0 1 0 -3.171907044792638 -18.572474717189195 -13.992950837073582 0 0 0
88 0 1 0 -5.254876929448006 -17.315335753381028 -13.010614757777596 0 0 0
90 0 1 0 -5.248469080117577 -18.1331798998605 -19.542042226426734 0 0 0
4836 0 1 0 -3.51935465618703 -16.180825719047142 -19.371856841901828 0 1 1
2278 0 1 0 -7.43171946026155 -19.54018460219217 -19.009574083490833 0 0 1
2768 0 1 0 -6.913678780018453 -18.183618447799795 -19.57098144849428 0 1 0
618 0 1 0 -4.941481343669707 -19.728546396890938 -12.866283349083101 0 0 0
2948 0 1 0 -3.004974932612442 -18.95726804336792 -16.53732164438091 0 1 0
30 0 1 0 15.387706588996007 -0.7806690667758084 -14.671899730880062 0 0 0
852 0 1 0 -4.845534007062898 -16.60733312142987 -19.771277836160444 0 0 0
2213 0 1 0 18.018088312341998 -1.6970176978271858 -12.218815710427378 0 0 1
932 0 1 0 -7.192550110704991 -15.804268201303696 -12.168645561090388 0 0 0
862 0 1 0 19.87887773604196 -0.15066870758931472 -12.166343035271828 -1 0 0
2533 0 1 0 -2.773465316258413 -17.334349376563253 -18.79013230621033 0 0 1
4777 0 1 0 2.4228774258363726 -15.27256180992795 -19.720947861745163 0 1 1
159 0 1 0 -0.21039582232174048 -17.118349724277184 -19.426291992463458 0 0 0
396 0 1 0 0.8984799051608856 -17.78733521159776 -18.6548865043937 0 0 0
610 0 1 0 -1.4957125004894585 -18.553419997603473 -14.173912002137019 0 0 0
378 0 1 0 -2.1307742525068845 -19.394299368296338 -12.97508255447484 0 0 0
4820 0 1 0 2.40908944475278 -17.662969768325024 -18.840661729969888 0 1 1
363 0 1 0 0.29614239351116095 -18.28941353946564 -16.24985175717472 0 0 0
324 0 1 0 -0.8663262488689666 -18.618927633984217 -15.415053854425704 0 0 0
3002 0 1 0 0.4903358821173852 -18.7444654296685 -17.675992533773716 0 1 0
4964 0 1 0 -1.6242883182408425 -19.395051402047617 -16.471373153598247 0 1 1
218 0 1 0 -1.5544467091392733 -17.79541857529308 -19.470514773322698 0 0 0
2072 0 1 0 2.8363839873960446 -13.39074367723432 -18.26513296792067 0 0 1
2907 0 1 0 3.03511712928201 -16.682117792622385 -19.661239226773088 0 1 0
2660 0 1 0 3.1124825634946505 -18.698599716174233 -18.00374316723204 0 1 0
2515 0 1 0 8.071648875284936 -19.562462072991682 -19.409768152591965 0 0 1
87 0 1 0 3.262725632501413 -14.101881997469807 -19.342961414815917 0 0 0
3385 0 1 0 7.196347743847854 -19.26914387156088 -13.664599127063179 0 1 0
169 0 1 0 7.781201253844119 -17.900337060731776 -13.469573871064503 0 0 0
962 0 1 0 5.069369048575563 -18.284088124787818 -13.062787686555616 0 0 0
350 0 1 0 7.976767397206589 -14.350422186145227 -19.246935736538322 0 0 0
2786 0 1 0 8.05645189205814 -13.748560827925395 -14.413889131641653 0 1 0
106 0 1 0 5.760607660176441 -19.348701613742776 -13.75545213504144 0 0 0
692 0 1 0 5.616065719156023 -17.199958483712642 -12.304944931983814 0 0 0
531 0 1 0 7.080887804093498 -17.206131251498824 -12.230005733604564 0 0 0
3214 0 1 0 3.709144216821407 -19.79956572904547 -17.444873984721468 0 1 0
2988 0 1 0 -6.595898080160674 -0.008531768086719144 -13.00962762352961 0 0 0
168 0 1 0 4.514117793134314 -13.609837393310142 -19.992706451202103 0 0 0
283 0 1 0 10.919523085701627 -14.640448646996454 -12.144335149230972 0 0 0
300 0 1 0 9.108283906793847 -17.51564481057834 -19.894101826989136 0 0 0
2325 0 1 0 13.433750099422879 -19.561877709672743 -17.07522636880641 0 0 1
137 0 1 0 8.816293805577647 -17.315402990249954 -14.303499354334928 0 0 0
2086 0 1 0 8.909770485153338 -18.53846372141769 -18.92021966205437 0 0 1
2362 0 1 0 9.461625749961215 -18.528752818465268 -17.695594377304907 0 0 1
2612 0 1 0 9.831996105616561 -17.968013564727258 -16.502491011248726 0 1 0
551 0 1 0 10.623172284867177 -19.08590292744987 -14.520227376706183 0 0 0
2514 0 1 0 12.301439305024898 -17.524949253709412 -18.7305025758415 0 0 1
514 0 1 0 12.07801009300542 -17.454930998818167 -17.166756751248368 0 0 0
4513 0 1 0 10.859748361727654 -16.94902441739376 -16.522635230060686 0 1 1
261 0 1 0 12.986329245764587 -18.075708600514762 -14.926253289622606 0 0 0
420 0 1 0 12.919352497251818 -18.381318770428948 -16.33323121901371 0 0 0
2498 0 1 0 12.709007822875387 -14.929441710195132 -19.064184395602712 -1 0 1
722 0 1 0 11.905065979622604 -18.584769824405974 -14.122242758900809 0 0 0
389 0 1 0 12.128118791064965 -16.286498669069264 -19.505311798405426 0 0 0
337 0 1 0 9.551376155770692 -18.295375835445412 -15.122742611188613 0 0 0
38 0 1 0 8.977316693150449 -14.741300945047508 -13.953011809415392 0 0 0
58 0 1 0 10.46283277348513 -15.854002121537118 -15.677009154493081 -1 0 0
2424 0 1 0 9.291733618661004 -15.965149299304322 -14.743699741601066 -1 0 1
485 0 1 0 12.329312659228824 -19.024084930280637 -12.886328454178056 0 0 0
2391 0 1 0 11.05514781677727 -14.56173595404972 -15.919849546751301 0 0 1
59 0 1 0 13.39621262241657 -16.343416719839173 -13.164616068798017 0 0 0
259 0 1 0 13.968284009209956 -17.459128007358068 -14.024185953008162 0 0 0
239 0 1 0 13.74131485257517 -14.998287003647944 -13.475178542554431 0 0 0
89 0 1 0 12.56181312367216 -14.263393430738937 -13.972500657331691 0 0 0
176 0 1 0 12.33983753295341 -14.214525433622692 -15.346613778146878 -1 0 0
2497 0 1 0 12.787528933676182 -18.85555467397267 -19.3330585298669 0 0 1
114 0 1 0 11.689245207432599 -13.94838624311165 -19.13515840135125 0 0 0
293 0 1 0 13.889382431312551 -19.416771907770304 -18.516995422873052 0 0 0
4776 0 1 0 14.05615269320706 -14.441404570121772 -18.60550496815893 -1 1 1
4150 0 1 0 13.452172753061125 -14.411100150837413 -16.203700263322407 0 1 1
796 0 1 0 9.501197525970264 -14.592949662231202 -12.593590105370922 0 0 0
243 0 1 0 11.829816416706002 -13.689059678199888 -12.884669001789154 0 0 0
2333 0 1 0 10.359075170180901 -13.709521219957296 -16.922534821216754 0 0 1
4515 0 1 0 12.560695439197179 -16.687297707159264 -12.085063163192778 0 1 1
20 0 1 0 19.880460391970267 -17.512351154645106 -19.017173152019296 0 0 0
2262 0 1 0 15.127778031055469 -19.46669172034117 -19.256715009114043 0 0 1
256 0 1 0 14.475639057412383 -14.340272418081986 -17.204292857651474 0 0 0
530 0 1 0 17.3713153834218 -17.617046023576794 -19.420363378338923 0 0 0
96 0 1 0 18.39714279094615 -15.932168478299218 -13.332931606851172 -1 0 0
930 0 1 0 19.47824883426503 -18.460244311011873 -12.785452588658693 -1 0 0
205 0 1 0 15.180520672746841 -14.57441919489947 -13.470755898921281 0 0 0
226 0 1 0 17.611868574936832 -17.03364424990104 -13.654528776485648 -1 0 0
471 0 1 0 18.521545487607376 -17.69313804196917 -18.68672449024453 -1 0 0
127 0 1 0 15.373153215015826 -17.71441832104756 -13.69492137095831 0 0 0
430 0 1 0 16.279505871148697 -16.707085565135724 -14.139880214038339 0 0 0
2189 0 1 0 15.933574529378374 -15.297238168100506 -14.524071302286101 0 0 1
537 0 1 0 16.4246735612384 -14.244454853072734 -15.501649497648211 0 0 0
609 0 1 0 18.087806315790022 -18.40648573935582 -13.35977020493202 0 0 0
2442 0 1 0 15.824060982039788 -13.938397647746795 -16.797096998469968 0 0 1
972 0 1 0 17.049335321539058 -19.469822555676714 -13.113624585504716 0 0 0
440 0 1 0 15.873397173863426 -18.640646937683375 -12.704727049761619 0 0 0
3099 0 1 0 19.522620258225476 -15.98369839387574 -12.484544377697476 0 1 0
480 0 1 0 15.880310300161778 -13.44649360896347 -12.87772575876933 0 0 0
263 0 1 0 -18.5665277508065 -8.428270719264688 -16.49943351902475 0 0 0
209 0 1 0 -15.231835207302757 -8.927114275092098 -17.95843385507539 0 0 0
8 0 1 0 -16.30462015126703 -9.300159474207737 -13.156433987730143 0 0 0
1927 0 1 0 -17.220027263119746 -8.320244825271017 -16.888258226242993 1 0 1
437 0 1 0 -18.72489612418198 -8.477998031771206 -15.112082889059678 0 0 0
462 0 1 0 -15.860948958717811 -8.64136992404825 -16.718767532877052 0 0 0
2023 0 1 0 -17.71210116286016 -7.90931170071432 -14.379031181545994 0 0 1
202 0 1 0 -17.06717830580966 -7.924475674887556 -12.930590040263393 1 0 0
2620 0 1 0 -15.214383669418977 -9.370636568978798 -14.08473124277731 0 0 0
81 0 1 0 -15.32308848212454 -8.217649910090747 -15.302438088460223 0 0 0
4839 0 1 0 -16.624382734282893 -7.282388125967038 -15.0493533975686 0 0 1
166 0 1 0 -15.801865046796255 -8.12890373601054 -19.04598731568446 0 0 0
699 0 1 0 -19.610188285134004 -8.667035748938902 -17.41792455597896 0 0 0
143 0 1 0 -17.13677774136106 -10.154278809079655 -12.245692049000636 0 0 0
395 0 1 0 -19.761459685681626 -9.280823372880558 -14.591605737541418 0 0 0
377 0 1 0 -19.88139220156809 -9.572675518606596 -13.177287379444273 0 0 0
576 0 1 0 -18.705370474804177 -9.688834366514174 -12.359465180435379 0 0 0
64 0 1 0 -14.83037819610523 -6.787199577744699 -12.629026733409022 0 0 0
2653 0 1 0 -15.044366655571453 -7.225872630576165 -19.83143544519074 0 0 0
559 0 1 0 -9.365318046038874 -13.039354141785916 -12.80246170998733 0 0 0
401 0 1 0 -8.912750769784559 -12.575419886896732 -19.82559973526249 0 0 0
146 0 1 0 -14.15195935761792 -9.760813464488443 -18.460349091195525 0 0 0
274 0 1 0 -13.579122978159292 -7.58922359276897 -19.716551358556828 0 0 0
359 0 1 0 -14.081324175929916 -10.048391767308974 -13.697358705818331 0 0 0
93 0 1 0 -14.068822472428877 -12.850362089331892 -14.63826995294226 1 0 0
2338 0 1 0 -13.407075775631597 -9.199510492327908 -19.557011564114504 0 0 1
1800 0 1 0 -13.996437885444113 -12.608222938330071 -16.01108480224963 0 0 1
623 0 1 0 -14.076374182660466 -7.229314753424725 -15.132841189354217 0 0 0
1683 0 1 0 -13.805260342461406 -11.090095288342331 -18.006032110314965 0 0 1
211 0 1 0 -13.66141091415479 -11.33045259931023 -16.570850492029624 0 0 0
2089 0 1 0 -13.461974147781634 -12.205408356934893 -18.848089634226692 1 0 1
2074 0 1 0 -10.225441106233214 -12.163300604305991 -19.3349666107454 0 0 1
2318 0 1 0 -10.38694939955314 -11.13802533780619 -18.259746652199464 0 0 1
467 0 1 0 -12.732364814566187 -10.586217997655654 -15.883158908740135 0 0 0
383 0 1 0 -10.556045520567611 -10.26724824763198 -17.13593598467796 0 0 0
2426 0 1 0 -11.418899664892473 -8.44941151913395 -14.36675291206892 0 0 1
78 0 1 0 -12.778647430193017 -10.611527569463565 -14.400808680456587 0 0 0
100 0 1 0 -11.79811437983011 -9.640725828171036 -16.52547161854587 0 0 0
313 0 1 0 -11.451927761408864 -9.864813887014405 -13.963936558962324 0 0 0
2109 0 1 0 -11.888531719953685 -8.304444002534195 -15.830286914254105 0 0 1
950 0 1 0 -12.810170090603194 -12.187639860153245 -13.901582009151365 0 0 0
117 0 1 0 -11.41961255013662 -12.862424116364672 -14.051999659794394 0 0 0
21 0 1 0 -10.274191031834473 -12.151527640325954 -13.551829926286484 0 0 0
912 0 1 0 -10.246956213200159 -10.70377501889236 -13.979039522545536 0 0 0
2102 0 1 0 -11.28525153714728 -7.294008736032096 -13.551065529031323 0 0 1
3 0 1 0 -12.89599278708693 -7.2851298647659135 -16.17069180554032 0 0 0
264 0 1 0 -9.371039208253535 -10.283345834841501 -15.03428564665276 0 0 0
52 0 1 0 -9.331093881723449 -9.863050467804014 -16.39358474858024 0 0 0
32 0 1 0 -13.884071024860768 -10.657038303400302 -12.426311592438285 0 0 0
54 0 1 0 -13.41770571225153 -11.952504454858655 -12.509286748849274 0 0 0
2859 0 1 0 15.158335279098319 -3.4654268706628115 -14.015579061641503 0 0 0
213 0 1 0 -8.17130934774341 -9.273227449519272 -16.979396215249736 0 0 0
233 0 1 0 -5.371597728635535 -7.563757980366195 -19.39697319899111 0 0 0
2196 0 1 0 -7.190026784872963 -8.56078213660199 -17.61014326080647 0 0 1
2335 0 1 0 -6.137773169926218 -8.001592184089526 -18.283464153848236 0 0 1
155 0 1 0 -3.922658714474404 -12.271937026132745 -19.587017329756243 0 0 0
694 0 1 0 2.4485709779019325 -9.135003736505835 -12.420661423548308 0 0 0
456 0 1 0 0.16127574588613736 -7.295506618652435 -17.342527262591314 0 0 0
339 0 1 0 2.2893469029458853 -9.447292230156073 -15.733174719285895 0 0 0
2505 0 1 0 1.0532511243543925 -7.6552284767357195 -13.805638401551139 0 0 1
2319 0 1 0 1.3751399948538543 -8.166354555468418 -12.50328659645161 0 0 1
1713 0 1 0 1.0124722667189223 -8.129177101999272 -16.545923701989974 0 0 1
371 0 1 0 1.2226858611445477 -8.517566072367845 -14.977781144576781 0 0 0
252 0 1 0 0.041584300883832005 -7.707960019893197 -18.77891589411806 0 0 0
303 0 1 0 2.041561021387353 -8.935007894540925 -17.259795016196648 0 0 0
2336 0 1 0 1.2238174245207871 -8.32352469005374 -19.511351993505254 0 0 1
2295 0 1 0 2.3777147516675377 -8.59866082045366 -18.59672146512998 0 0 1
2371 0 1 0 -1.1863676610497755 -7.666273716425163 -19.434009090370232 0 0 1
241 0 1 0 2.9069321970730013 -11.76062600728729 -16.18437772031449 0 0 0
812 0 1 0 2.929456920346125 -12.674990737561586 -17.15173030749927 0 0 0
399 0 1 0 3.089998484391221 -10.628746712553378 -15.420274351627183 0 0 0
3267 0 1 0 6.997382700157969 -13.303956081981068 -13.450677263769125 0 1 0
2548 0 1 0 8.158252552315806 -13.080846069620295 -15.678592819026736 0 0 1
700 0 1 0 4.07731816448123 -7.271443304870624 -12.661521458544238 0 0 0
421 0 1 0 7.351885204222208 -8.91339059614553 -18.666889522172923 0 0 0
2559 0 1 0 3.715362387189585 -8.611855005349467 -12.96279834927209 0 0 1
107 0 1 0 5.884857377051966 -12.264755815339077 -13.345544616618252 0 0 0
2446 0 1 0 3.9010793756277784 -8.58241295902969 -18.82163951776737 0 0 1
2228 0 1 0 4.143333202282204 -10.676283734334076 -14.429270729562548 0 0 1
95 0 1 0 5.3267139631176414 -11.494079812532592 -14.376729326583131 0 0 0
329 0 1 0 6.341054131147038 -9.914261912460358 -18.359449238926445 0 0 0
2142 0 1 0 6.2297427099476455 -11.047299622913433 -15.395036228589449 0 0 1
132 0 1 0 5.403367798732229 -8.758378465246524 -14.754306497191427 0 0 0
2393 0 1 0 7.442348285349189 -11.845065588138718 -15.630459849726707 0 0 1
481 0 1 0 5.569902951930053 -9.416048559413445 -17.176736901282318 0 0 0
85 0 1 0 5.590524412836672 -7.324434025448932 -14.717233079805796 0 0 0
2273 0 1 0 4.47631834077538 -9.355892253295341 -13.882788563781848 0 0 1
2334 0 1 0 5.862566516270336 -9.647284052294228 -15.804022430709223 0 0 1
2236 0 1 0 4.773248794236573 -8.235909219417566 -17.65389713050379 0 0 1
487 0 1 0 5.990311248066261 -7.3411926251258315 -17.092813713343467 0 0 0
2106 0 1 0 5.622643704643762 -11.02287475961068 -19.20022115878517 0 0 1
2270 0 1 0 7.150449273202881 -7.428677779969035 -18.08299146946512 0 0 1
470 0 1 0 5.361422851471902 -12.556423214791547 -19.344343796022535 0 0 0
45 0 1 0 6.289233094401562 -6.796248750841694 -15.795232555555994 0 0 0
2511 0 1 0 5.151494778985607 -6.650519715062165 -13.469345320060116 0 0 1
354 0 1 0 15.467732577261806 -6.638204043170966 -15.581730076902204 -1 0 0
1002 0 1 0 15.946675877587346 -1.3209256650105863 -13.470760255818314 0 0 0
257 0 1 0 8.570847037681975 -13.41097383201296 -18.350003707455993 0 0 0
425 0 1 0 8.86091175682921 -13.502142020472771 -16.87015985668846 0 0 0
1692 0 1 0 10.78104539528175 -13.175125431979284 -18.2867238760339 0 0 1
272 0 1 0 11.90750458036975 -9.816762334564988 -19.813549210397795 0 0 0
2354 0 1 0 11.52395484354285 -7.437096816141259 -19.541579881066628 0 0 1
2119 0 1 0 12.455759545027874 -8.532273026658956 -19.276649761552203 0 0 1
2684 0 1 0 9.670678012571393 -12.403527867618926 -19.027964241237008 0 0 0
2134 0 1 0 13.723273289409288 -8.198912380032423 -18.714313481593127 0 0 1
115 0 1 0 10.784466143568025 -7.382379297147602 -12.271243200706648 0 0 0
588 0 1 0 10.521983189897636 -7.165276677771976 -13.75630136615167 0 0 0
2293 0 1 0 10.4225606588528 -10.061819625236021 -19.79962030675055 0 0 1
2352 0 1 0 12.314465172159016 -12.415811053084521 -12.415378094494645 0 0 1
1647 0 1 0 -12.60886997071975 -12.085694337479453 -19.945016071188267 0 0 1
304 0 1 0 7.208192351530607 -13.71335406453657 -12.060924228816297 0 0 0
3168 0 1 0 19.654092849266465 -3.3941352079734273 -13.759972918704845 -1 0 0
101 0 1 0 14.437652517554973 -7.058691362874107 -12.222695021085201 0 0 0
2348 0 1 0 14.742339614708872 -13.410966133090806 -19.3813597029899 0 0 1
103 0 1 0 17.198121315016422 -13.151668763676806 -14.87963273576962 -1 0 0
270 0 1 0 19.797363177590395 -8.138458967564945 -18.767349550772046 0 0 0
2492 0 1 0 16.118281221559702 -13.10169031772653 -19.040682395869496 0 0 1
366 0 1 0 17.271225715431708 -8.146041430439183 -19.626011548734372 -1 0 0
418 0 1 0 16.453566968673233 -12.998273122116474 -17.62034276157354 0 0 0
220 0 1 0 15.204886155659679 -7.190825065548275 -16.792861256984036 -1 0 0
661 0 1 0 17.156626159767082 -13.125454055243475 -13.459619206879227 0 0 0
2163 0 1 0 16.137776686927833 -7.398795627707043 -19.1595285134812 -1 0 1
232 0 1 0 19.37339139452961 -10.023313925850612 -15.46520500383911 -1 0 0
2209 0 1 0 18.324351808817024 -11.051730170389469 -13.521936506495656 0 0 1
483 0 1 0 19.35089270301308 -9.495117423464098 -16.811592981648353 -1 0 0
953 0 1 0 18.448086425115065 -11.057785500592786 -14.995895028513976 -1 0 0
2458 0 1 0 18.26677854793702 -9.611975920392336 -17.71320807959228 0 0 1
245 0 1 0 17.64756921472357 -12.070283970237679 -15.661913821168705 -1 0 0
2541 0 1 0 17.493583357754797 -10.732820277576835 -17.579627400740105 -1 0 1
79 0 1 0 17.268304886752073 -12.007776994269305 -17.002338808088375 -1 0 0
2286 0 1 0 14.98472970737851 -7.650492062279595 -18.194527008196708 -1 0 1
472 0 1 0 18.34993794766337 -8.643908764783923 -18.750575501854993 -1 0 0
713 0 1 0 18.20490969308865 -12.346180794115714 -12.819103985898142 0 0 0
2537 0 1 0 18.676626868718255 -9.805025860356192 -12.796704018372264 -1 0 1
412 0 1 0 -16.250766919358814 -6.631671570183272 -12.796736934401467 0 0 0
393 0 1 0 -19.632488741749548 -2.369876904414465 -13.11838297563247 1 0 0
236 0 1 0 -16.596840887116276 -5.832840517976073 -14.89125706331265 0 0 0
175 0 1 0 -16.69206412394331 -5.367768894209135 -13.508274239891746 0 0 0
277 0 1 0 -18.179157161236944 -1.8878807957742592 -13.011175234100355 1 0 0
94 0 1 0 -17.358811097709463 -4.271446721387405 -12.740861463313138 0 0 0
499 0 1 0 -17.11336238825418 -2.840360738237583 -12.539737364652828 0 0 0
553 0 1 0 -18.028085044040132 -0.43049827715018696 -13.168972342569502 0 0 0
4785 0 1 0 -12.829372119160631 -6.531101048717883 -18.847636538089475 0 0 1
69 0 1 0 -12.635093766662122 -6.42610966908243 -17.375725896489666 0 0 0
63 0 1 0 -14.016928136602763 -6.580519519732294 -13.864180689291931 0 0 0
161 0 1 0 -12.391162724475475 -5.413099033879838 -19.682397015589533 0 0 0
621 0 1 0 -13.137012217148724 -3.8900602429192874 -13.520162467346612 0 0 0
490 0 1 0 -11.839610926009454 -6.125065045613663 -12.78759240274824 0 0 0
2255 0 1 0 -11.24728550122979 -4.608494281733642 -19.402772361148045 0 0 1
638 0 1 0 -12.29954022757811 -4.205193521212769 -16.17838454586493 0 0 0
29 0 1 0 -12.191073588087677 -2.839685765188043 -16.522796652806893 1 0 0
123 0 1 0 -11.813090080854835 -5.2555516238982225 -17.073115695639654 0 0 0
197 0 1 0 -12.912097407585268 -5.572948401257189 -13.646958115670422 0 0 0
3499 0 1 0 -10.755384961727415 -4.911814226533136 -18.048062029540482 0 0 0
793 0 1 0 -12.726311046283342 -4.531609889892664 -14.916412756416612 0 0 0
2466 0 1 0 -12.322297974714479 -1.5283061686967918 -16.856187992265845 0 0 1
2619 0 1 0 -9.346817582659632 -4.987008840293061 -17.939845486956965 0 0 0
409 0 1 0 -13.422311077818954 -3.2960100923765125 -12.334343546045602 0 0 0
4609 0 1 0 -12.437051848804701 -0.21985683802967895 -17.235628771604034 0 0 1
3169 0 1 0 -5.333303390780915 -0.14597720111148615 -13.618642490764527 0 0 0
308 0 1 0 -7.501661316101942 -4.766410210961663 -19.79135214550723 0 0 0
2282 0 1 0 -7.297799818321664 -1.4246116638874813 -19.8514805050063 0 0 1
2581 0 1 0 -3.588576848538227 -0.4821746965283573 -16.130436520643674 0 0 0
138 0 1 0 -6.074029356396725 -0.23066284966078437 -16.81604492091189 0 0 0
105 0 1 0 -3.61355500395528 -2.7098269663587633 -19.583286074853877 0 0 0
2327 0 1 0 -8.120868814869125 -5.1209700382544625 -18.560284631511177 0 0 1
4963 0 1 0 -5.962712765978132 -1.4886092402314421 -19.411387002932404 0 0 1
3060 0 1 0 -5.885291395754062 -3.2824397841233863 -13.452523040970133 0 0 0
2145 0 1 0 -6.166605161177498 -1.6704133905414413 -17.04881407021891 0 0 1
2820 0 1 0 -6.367423464260051 -2.442439065881564 -15.89076187268288 0 0 0
2248 0 1 0 -5.55382446409348 -2.121022585133965 -18.220426939038706 0 0 1
362 0 1 0 -6.192953281252309 -3.1437746529340416 -14.753857746787185 0 0 0
2813 0 1 0 -4.070748032787047 -2.4421090366660896 -18.115100730395117 0 0 0
330 0 1 0 -4.229485748284911 -0.8119361949632323 -12.976192651435934 0 0 0
2405 0 1 0 -3.4266579574005522 -1.6859697330618337 -16.752997683366978 0 0 1
2219 0 1 0 -5.774321419364855 -2.613203776934221 -12.194428312659786 0 0 1
2866 0 1 0 -7.840687857832427 -0.1236136168413566 -19.70460618295679 0 0 0
357 0 1 0 -2.951223370997539 -0.28345533021772146 -12.858016150320664 0 0 0
2401 0 1 0 -3.0747571657652264 -3.1953336334801183 -17.091218094165583 0 0 1
27 0 1 0 18.545242090921167 -4.108483301074626 -14.096526080625301 0 0 0
2989 0 1 0 0.39032381713467307 -0.2084364026236792 -16.627985304560994 0 0 0
198 0 1 0 0.5489655129755893 -6.362491905325028 -14.00521659356939 0 0 0
496 0 1 0 -0.3067607443597113 -6.108735478146245 -16.61844631652045 0 0 0
321 0 1 0 -2.1548369883198117 -4.168347959631228 -17.00246538478724 0 0 0
414 0 1 0 0.3247678626881209 -6.007749751058885 -15.329444679023297 0 0 0
207 0 1 0 0.2712768138534303 -5.5624632589864005 -12.849696992309008 0 0 0
295 0 1 0 -1.3768657739099583 -5.235460371565646 -16.81085471634534 0 0 0
4589 0 1 0 1.1265410358727332 -1.2143634142753643 -16.1025589041921 0 0 1
2490 0 1 0 1.9846821616494053 -1.724042359703353 -15.084105321430181 0 0 1
4937 0 1 0 2.497191072680969 -3.0197091153164823 -14.678560809899562 0 0 1
3422 0 1 0 2.77036084157215 -0.6696737833343084 -14.499588257527611 0 0 0
415 0 1 0 3.5843195627526163 -3.7040678837629324 -14.18420193438158 0 0 0
2664 0 1 0 4.215078277393943 -0.5237376276908376 -14.86428083711134 0 0 0
428 0 1 0 4.555407386943524 -4.36873936064014 -13.55230836858149 0 0 0
2330 0 1 0 7.835112411783882 -6.139062843345153 -18.264236205068396 0 0 1
2210 0 1 0 5.779331748726568 -0.6688497984520496 -13.039604103760519 0 0 1
36 0 1 0 8.377861865761268 -6.078403932779453 -14.263278848993632 0 0 0
495 0 1 0 7.445360440982611 -5.832188289455804 -15.507778804541772 0 0 0
888 0 1 0 7.3411693066300785 -2.8484132391439507 -15.624613756707905 0 0 0
434 0 1 0 6.192444356571591 -2.3363257826559782 -14.874258691595298 0 0 0
374 0 1 0 5.574402494432647 -5.259244403255482 -13.22053084277935 0 0 0
457 0 1 0 5.380647491888666 -1.2490525416648532 -14.316714727462013 0 0 0
507 0 1 0 8.041325158801465 -5.864234033036892 -12.903369494158097 0 0 0
3000 0 1 0 7.500165720747067 -4.229262686209239 -15.945201221250361 0 0 0
720 0 1 0 6.8947586742961064 -4.885873041327931 -12.829958665225488 0 0 0
65 0 1 0 8.245002066000634 -5.363325690434539 -16.959975475540226 0 0 0
124 0 1 0 8.230809497855399 -5.322811486399085 -19.470824272238968 0 0 0
312 0 1 0 8.267117768968031 -0.9301935916683961 -16.77570176593289 0 0 0
459 0 1 0 7.729262698556915 -3.7735558075470137 -12.240441633737156 0 0 0
201 0 1 0 8.380608444420645 -1.7784855522226464 -15.663238835128455 0 0 0
43 0 1 0 3.547541531409425 -0.8534010701934656 -12.093461439886028 0 0 0
268 0 1 0 8.739099310715448 -1.1737577661447278 -17.965066661817968 0 0 0
99 0 1 0 9.20276743777512 -3.039535098284018 -19.921905914472237 0 0 0
109 0 1 0 9.249024660172697 -0.17995261875572377 -19.22214943159602 0 0 0
129 0 1 0 12.071149074131682 -6.124993938625851 -19.832829813494836 0 0 0
2390 0 1 0 11.816541113758642 -4.94292277280722 -18.848850423651065 0 0 1
1383 0 1 0 11.599215645334345 -0.9181672572700924 -14.328790050870237 0 0 0
3443 0 1 0 12.47979113099868 -4.705482539409533 -12.4894616903926 0 0 0
190 0 1 0 12.873202710455502 -1.1933521064169932 -14.843494317797207 0 0 0
3327 0 1 0 14.192904264629007 -1.5274801628684285 -15.094530119764128 0 0 0
3534 0 1 0 9.870687130978814 -5.310227342125491 -17.008413281753786 0 0 0
567 0 1 0 10.384150226202822 -5.742204558911298 -15.758607357889561 0 0 0
2292 0 1 0 13.469090896748604 -3.9009879442298905 -15.787114787956199 0 0 1
2207 0 1 0 13.19564518757115 -3.930238577520959 -17.182770169689665 0 0 1
181 0 1 0 13.087939747323631 -5.308641906895309 -13.615221926911568 0 0 0
2386 0 1 0 12.953054550582973 -4.103969139967053 -18.547903683953237 0 0 1
2516 0 1 0 12.81651332104363 -4.892639918484913 -15.019532890485035 0 0 1
171 0 1 0 8.98422866769716 -3.324459045777976 -12.822075761806808 0 0 0
2418 0 1 0 10.31453694210341 -3.1340714013427355 -13.339258465395027 0 0 1
448 0 1 0 9.26794019928521 -1.3139649262489577 -14.685266375571585 0 0 0
248 0 1 0 13.722402540030982 -3.537933441455735 -19.721436029823646 0 0 0
3483 0 1 0 10.410111143867944 -4.851276454618167 -18.324626937662142 0 0 0