ITEM: TIMESTEP
0
ITEM: NUMBER OF ATOMS
5000
ITEM: BOX BOUNDS pp pp pp
-2.0000000000000000e+01 2.0000000000000000e+01
-2.0000000000000000e+01 2.0000000000000000e+01
-2.0000000000000000e+01 2.0000000000000000e+01
ITEM: ATOMS id type xs ys zs
10 1 0.0918138 0.064278 0.108545
35 1 0.0017637 0.112624 0.155903
56 1 0.035033 0.0168562 0.171032
58 1 0.0903147 0.15395 0.0845173
79 1 0.0306143 0.0524157 0.0584518
144 1 0.11416 0.0363806 0.0323151
203 1 0.104578 0.0455132 0.18852
222 1 0.0738757 0.160821 0.113445
230 1 0.0907539 0.0939409 0.163824
231 1 0.0803716 0.0386764 0.0314469
271 1 0.133745 0.017501 0.0514954
298 1 0.0761127 0.00748155 0.0805684
315 1 0.0886608 0.0376484 0.0895709
340 1 0.00648138 0.150711 0.0445788
360 1 0.118634 0.157393 0.186146
381 1 0.0553901 0.0878734 0.170694
390 1 0.0736549 0.141233 0.0575635
406 1 0.0216243 0.0886198 0.170296
411 1 0.07217 0.0627771 0.19817
439 1 0.116678 0.0251342 0.165669
452 1 0.0255038 0.0268742 0.131071
466 1 0.0553855 0.149423 0.190922
468 1 0.0434482 0.0356557 0.0318493
473 1 0.121023 0.0930008 0.176959
212 1 0.0865395 0.155418 0.179799
571 1 0.0371161 0.0425785 0.199363
2564 1 0.0286185 0.0318843 0.0012437
34 1 0.188212 0.0727123 0.149959
44 1 0.172484 0.0705673 0.120405
48 1 0.197875 0.159918 0.168637
70 1 0.221147 0.14829 0.14873
82 1 0.227509 0.0130928 0.166777
86 1 0.182202 0.0530704 0.0932679
96 1 0.152495 0.00446254 0.0760295
130 1 0.283423 0.0106697 0.056753
140 1 0.247549 0.125704 0.0542947
149 1 0.273595 0.0866212 0.114381
152 1 0.221862 0.162443 0.0949132
176 1 0.17849 0.128861 0.0660045
186 1 0.215846 0.143357 0.0661318
226 1 0.244704 0.135357 0.129973
228 1 0.260062 0.135264 0.0234592
334 1 0.246447 0.0820484 0.182123
346 1 0.181168 0.0202234 0.0852896
353 1 0.217599 0.0779159 0.164377
366 1 0.204197 0.160385 0.035252
394 1 0.15109 0.148397 0.0721858
450 1 0.268778 0.0566338 0.186122
501 1 0.25927 0.0353792 0.110081
426 1 0.278363 0.0293383 0.0840266
513 1 0.254647 0.111681 0.197571
1 1 0.361741 0.1592 0.155906
39 1 0.399714 0.108869 0.0913563
52 1 0.401944 0.123442 0.0196791
72 1 0.333193 0.0230517 0.145984
88 1 0.409631 0.057406 0.122038
111 1 0.346717 0.00841899 0.047239
118 1 0.343438 0.0675833 0.0669087
150 1 0.415864 0.137432 0.173079
162 1 0.403683 0.146537 0.079007
208 1 0.309523 0.163522 0.109921
214 1 0.333157 0.0594359 0.19934
219 1 0.314573 0.129474 0.112291
324 1 0.328164 0.111186 0.0874983
371 1 0.350671 0.128311 0.181351
388 1 0.29361 0.0239385 0.15323
401 1 0.328361 0.0837336 0.040839
413 1 0.403556 0.11535 0.0527883
461 1 0.301843 0.0578091 0.188971
470 1 0.386147 0.126717 0.160872
484 1 0.30575 0.115372 0.141708
490 1 0.407279 0.157639 0.0156123
492 1 0.357758 0.0377126 0.0593391
2432 1 0.331403 0.0706085 0.0109725
280 1 0.430207 0.0559158 0.194659
51 1 0.439467 0.0747879 0.169353
95 1 0.527272 0.13714 0.141841
98 1 0.516483 0.0901434 0.175128
125 1 0.513626 0.0233908 0.00941777
131 1 0.493443 0.0821917 0.0108583
159 1 0.443168 0.105773 0.115444
164 1 0.548363 0.124373 0.0129131
168 1 0.48036 0.150368 0.016079
179 1 0.448807 0.0315835 0.0131128
180 1 0.482843 0.0693196 0.0390678
218 1 0.469934 0.12695 0.117175
257 1 0.56635 0.043845 0.103599
266 1 0.502796 0.0605495 0.0912761
285 1 0.508581 0.155004 0.0657578
290 1 0.503592 0.129271 0.116368
294 1 0.548632 0.0253409 0.184685
303 1 0.458704 0.0517147 0.0949931
332 1 0.505277 0.166526 0.188559
342 1 0.475672 0.127285 0.043671
344 1 0.454748 0.0284717 0.0456589
352 1 0.512595 0.0236694 0.0431316
363 1 0.4837 0.0182308 0.0627194
376 1 0.548664 0.0116642 0.15429
384 1 0.492394 0.0173906 0.153493
396 1 0.532721 0.0583996 0.0998551
398 1 0.442045 0.0811765 0.0886006
399 1 0.533385 0.119825 0.171114
417 1 0.429521 0.0803715 0.136985
429 1 0.568514 0.0124816 0.12213
21 1 0.612976 0.153391 0.138814
71 1 0.704144 0.0351466 0.081231
106 1 0.643103 0.0135433 0.0756142
169 1 0.707591 0.0815067 0.108941
173 1 0.709349 0.0954613 0.177821
194 1 0.65299 0.108143 0.0430585
241 1 0.65582 0.0701568 0.105439
261 1 0.651251 0.0401179 0.0936743
300 1 0.673459 0.0279101 0.0190436
326 1 0.597622 0.0600827 0.0797369
333 1 0.675103 0.0777998 0.18884
350 1 0.685407 0.10164 0.0417064
368 1 0.690383 0.0206197 0.0488111
386 1 0.673245 0.165569 0.188932
389 1 0.709583 0.111347 0.0925563
397 1 0.673938 0.110183 0.164881
422 1 0.60892 0.165449 0.0425501
447 1 0.588003 0.0759487 0.0255962
455 1 0.60829 0.000167462 0.128198
465 1 0.595152 0.0722421 0.115564
2471 1 0.702719 0.0414065 0.00151242
476 1 0.641533 0.163204 0.0294396
2954 1 0.764296 0.0096258 0.103476
2 1 0.776232 0.034755 0.158163
4 1 0.764744 0.0206258 0.035353
6 1 0.726351 0.0592882 0.127114
31 1 0.738436 0.019596 0.0840154
87 1 0.718395 0.141209 0.0661403
92 1 0.785625 0.0222258 0.126666
136 1 0.743903 0.0852548 0.177304
174 1 0.748793 0.0568747 0.154724
205 1 0.73116 0.14249 0.104133
237 1 0.795694 0.00907398 0.0403867
238 1 0.850805 0.0321005 0.137657
239 1 0.846946 0.139636 0.143177
243 1 0.769828 0.115592 0.187581
289 1 0.796245 0.0229316 0.184738
337 1 0.793397 0.150916 0.161666
339 1 0.831019 0.0568537 0.0714783
400 1 0.827421 0.134521 0.168211
404 1 0.730631 0.0150027 0.0443933
418 1 0.820243 0.0805061 0.0917316
432 1 0.804121 0.133712 0.0631926
485 1 0.812211 0.112724 0.0881397
491 1 0.733225 0.155294 0.134609
494 1 0.75488 0.146732 0.164675
2501 1 0.842757 0.017841 0.00819971
433 1 0.93933 0.024747 0.198523
80 1 0.921617 0.0109041 0.0815368
195 1 0.977503 0.0483654 0.0189793
215 1 0.905974 0.0839161 0.0774009
223 1 0.924326 0.0103621 0.0228117
256 1 0.908116 0.0959701 0.0104057
282 1 0.888322 0.117086 0.0293492
283 1 0.905952 0.143424 0.14407
292 1 0.972541 0.078338 0.0822006
306 1 0.870508 0.14063 0.0111759
358 1 0.946226 0.0290257 0.166866
407 1 0.951329 0.0288911 0.0218762
440 1 0.876722 0.140395 0.129435
500 1 0.889551 0.109167 0.0631655
68 1 0.0530464 0.223629 0.185825
103 1 0.00871994 0.196887 0.117139
120 1 0.139122 0.296238 0.0863283
122 1 0.0875188 0.277073 0.116728
163 1 0.0411092 0.285712 0.0683138
167 1 0.0235752 0.269322 0.034843
175 1 0.121916 0.168374 0.0752396
199 1 0.120553 0.265082 0.105933
263 1 0.0165985 0.309509 0.119014
319 1 0.0253084 0.308085 0.0392932
385 1 0.116348 0.20234 0.0674013
409 1 0.0240599 0.284757 0.141747
437 1 0.122082 0.228666 0.0885503
442 1 0.0610035 0.276014 0.0941559
467 1 0.0902295 0.306855 0.135058
493 1 0.0949646 0.262573 0.194442
503 1 0.00266989 0.190779 0.0482038
23 1 0.00315468 0.219523 0.0641299
270 1 0.00283403 0.280775 0.168532
680 1 0.0244758 0.198628 0.195395
943 1 0.119811 0.206919 0.199685
245 1 0.154816 0.267349 0.0685279
419 1 0.147376 0.267025 0.134431
3 1 0.202811 0.211992 0.106235
8 1 0.236023 0.252031 0.178198
16 1 0.158649 0.238121 0.0882665
32 1 0.262657 0.303778 0.127979
40 1 0.215995 0.313317 0.171071
61 1 0.24049 0.203759 0.13793
66 1 0.197023 0.211942 0.0039863
123 1 0.234759 0.307388 0.145108
134 1 0.165136 0.195239 0.0586774
146 1 0.175707 0.268929 0.148979
155 1 0.261952 0.251827 0.000557252
170 1 0.168797 0.279237 0.0386898
211 1 0.181602 0.213829 0.131627
240 1 0.229241 0.231366 0.152196
252 1 0.25845 0.26358 0.050138
255 1 0.266481 0.257695 0.192101
264 1 0.272784 0.294861 0.0689843
308 1 0.206607 0.32624 0.0302952
310 1 0.265285 0.215528 0.0619003
313 1 0.280915 0.295876 0.101607
322 1 0.157154 0.324093 0.0724542
382 1 0.270141 0.21154 0.0946955
438 1 0.248032 0.321136 0.023582
471 1 0.174988 0.314332 0.0427647
479 1 0.179587 0.203549 0.0308722
139 1 0.270452 0.232131 0.0304253
2163 1 0.220352 0.298542 0.00131754
359 1 0.384862 0.177788 0.0339605
274 1 0.291535 0.284124 0.0366818
53 1 0.411715 0.311983 0.0762908
54 1 0.363869 0.228037 0.0145511
113 1 0.39793 0.234089 0.0222414
158 1 0.423831 0.220299 0.163728
206 1 0.324231 0.248242 0.164136
207 1 0.405299 0.18937 0.180676
233 1 0.322478 0.271994 0.0289339
236 1 0.409368 0.28113 0.149722
246 1 0.2993 0.251996 0.186892
281 1 0.344335 0.221825 0.140693
296 1 0.336003 0.248261 0.00755394
329 1 0.389519 0.176022 0.0684847
362 1 0.357232 0.191787 0.148722
378 1 0.28852 0.189315 0.111358
416 1 0.376593 0.313209 0.0978014
489 1 0.414684 0.279465 0.182381
498 1 0.358167 0.193576 0.018195
499 1 0.330842 0.257398 0.125387
423 1 0.41801 0.295481 0.0153562
24 1 0.476168 0.184752 0.0228573
50 1 0.467775 0.219296 0.0235325
112 1 0.466918 0.287724 0.0493144
116 1 0.517198 0.28065 0.0814368
126 1 0.48499 0.320457 0.144492
138 1 0.517678 0.326838 0.0256157
153 1 0.562919 0.327559 0.145452
177 1 0.558978 0.258911 0.176332
183 1 0.518213 0.279559 0.114391
198 1 0.473164 0.226554 0.121526
213 1 0.432812 0.233881 0.0215276
225 1 0.478812 0.187084 0.128197
284 1 0.43649 0.182521 0.156865
295 1 0.543405 0.218385 0.0743861
299 1 0.463381 0.255548 0.109866
302 1 0.524652 0.251804 0.0176876
330 1 0.432142 0.302354 0.0489515
348 1 0.500087 0.289769 0.141223
349 1 0.497774 0.219022 0.151807
372 1 0.505595 0.238047 0.199917
425 1 0.537215 0.197237 0.10731
441 1 0.448384 0.269012 0.0158401
456 1 0.492103 0.245029 0.012936
481 1 0.507293 0.167776 0.152043
496 1 0.526371 0.198258 0.138556
185 1 0.711705 0.172096 0.187148
495 1 0.57376 0.198708 0.0936166
36 1 0.668761 0.264929 0.149262
85 1 0.649992 0.231854 0.0661928
129 1 0.667752 0.20968 0.0846078
132 1 0.7034 0.310273 0.0444792
137 1 0.650805 0.189564 0.191705
171 1 0.688581 0.332522 0.158456
172 1 0.578726 0.174421 0.03157
182 1 0.581573 0.246357 0.196257
196 1 0.611829 0.273057 0.163529
229 1 0.68659 0.292324 0.0662498
242 1 0.701885 0.261882 0.150707
249 1 0.62992 0.288936 0.110597
268 1 0.637548 0.277604 0.142444
286 1 0.673391 0.168291 0.0433324
291 1 0.658782 0.3221 0.169372
301 1 0.615647 0.287267 0.0809651
373 1 0.686841 0.185505 0.0695322
374 1 0.629884 0.236771 0.0401349
421 1 0.60138 0.232317 0.0238484
482 1 0.603793 0.186892 0.0975667
9 1 0.707472 0.173661 0.147427
115 1 0.633519 0.325534 0.190896
430 1 0.801761 0.166939 0.059872
457 1 0.731761 0.255071 0.137446
59 1 0.783376 0.187321 0.157481
148 1 0.787907 0.251705 0.198775
193 1 0.725662 0.219747 0.182551
259 1 0.806898 0.209511 0.153828
273 1 0.853358 0.253783 0.017134
278 1 0.84653 0.225336 0.0645311
293 1 0.724543 0.182953 0.0201809
297 1 0.734679 0.310941 0.116647
304 1 0.747591 0.187977 0.17349
312 1 0.847158 0.240899 0.0953225
323 1 0.768248 0.27948 0.0362259
369 1 0.796668 0.255617 0.0211251
420 1 0.791778 0.190857 0.0802724
487 1 0.761445 0.251525 0.12405
5 1 0.929732 0.260802 0.0824292
20 1 0.957029 0.220976 0.018641
28 1 0.92857 0.238212 0.118053
67 1 0.977585 0.20292 0.124867
83 1 0.860697 0.222954 0.127889
89 1 0.918175 0.209879 0.0150914
93 1 0.990987 0.328813 0.107106
101 1 0.931452 0.28681 0.183967
104 1 0.873296 0.306 0.00352996
114 1 0.85792 0.205426 0.0410524
135 1 0.981129 0.271902 0.115958
160 1 0.909536 0.320086 0.05856
184 1 0.938685 0.172271 0.0418814
190 1 0.871576 0.203882 0.154471
227 1 0.861427 0.278863 0.0984579
247 1 0.936551 0.261602 0.0496127
251 1 0.972311 0.169518 0.0339521
262 1 0.871383 0.260769 0.133831
267 1 0.994511 0.262738 0.0197392
276 1 0.949571 0.219055 0.132977
277 1 0.951557 0.282004 0.105909
279 1 0.912828 0.31637 0.13247
288 1 0.890689 0.212235 0.181523
335 1 0.895297 0.253078 0.100452
338 1 0.886803 0.321293 0.0305039
351 1 0.877148 0.271584 0.00138899
393 1 0.970591 0.276905 0.179718
458 1 0.930691 0.184486 0.0724405
480 1 0.911861 0.174468 0.0163036
749 1 0.942894 0.248856 0.189136
202 1 0.938592 0.332551 0.069794
25 1 0.0701871 0.477597 0.136845
75 1 0.022477 0.449472 0.156849
77 1 0.0505844 0.457306 0.0598921
78 1 0.0400852 0.377452 0.115934
81 1 0.0526293 0.46438 0.163487
94 1 0.112533 0.354488 0.158031
102 1 0.14174 0.462011 0.0771699
119 1 0.041184 0.440788 0.0296284
197 1 0.141901 0.379524 0.0461762
221 1 0.0707594 0.450758 0.189932
232 1 0.024819 0.408782 0.0377803
235 1 0.109684 0.455886 0.0892381
250 1 0.0843175 0.465346 0.108915
275 1 0.0784747 0.394142 0.174921
331 1 0.0968359 0.347625 0.186436
354 1 0.0919737 0.424364 0.181285
361 1 0.0778743 0.353196 0.0935646
377 1 0.0349252 0.376619 0.0426336
395 1 0.0290056 0.35281 0.0651504
445 1 0.0315883 0.465192 0.0875328
462 1 0.0932764 0.335825 0.117027
478 1 0.123777 0.433584 0.171655
483 1 0.00423629 0.4314 0.0617918
63 1 0.140123 0.373859 0.0783082
320 1 0.141753 0.365966 0.00804572
2100 1 0.212159 0.491339 0.00392086
867 1 0.245481 0.42125 0.198892
145 1 0.154491 0.442896 0.178064
11 1 0.160479 0.43549 0.0191552
17 1 0.161611 0.483179 0.0964457
64 1 0.181461 0.396059 0.168741
69 1 0.27629 0.35675 0.14464
74 1 0.22924 0.478845 0.139035
100 1 0.268092 0.346649 0.0078893
117 1 0.272033 0.424508 0.0175378
143 1 0.161146 0.370088 0.17229
147 1 0.155121 0.448158 0.049538
157 1 0.250653 0.420913 0.0765624
178 1 0.154472 0.402286 0.0153601
209 1 0.157977 0.336111 0.00129906
269 1 0.21323 0.367245 0.0254453
317 1 0.265064 0.431253 0.0491127
356 1 0.262019 0.481643 0.141934
453 1 0.217636 0.474299 0.040037
454 1 0.252179 0.364575 0.165989
387 1 0.284776 0.49678 0.162001
18 1 0.371026 0.389318 0.197593
12 1 0.380093 0.473787 0.0941666
13 1 0.385436 0.437417 0.0219365
15 1 0.408169 0.498245 0.0438517
84 1 0.420267 0.378932 0.158677
110 1 0.318032 0.489534 0.117392
141 1 0.403357 0.354566 0.143724
161 1 0.338953 0.439903 0.119807
166 1 0.34255 0.374718 0.190597
191 1 0.396008 0.425538 0.124183
287 1 0.397287 0.467276 0.166033
311 1 0.319047 0.456406 0.185979
314 1 0.426774 0.404633 0.0401234
316 1 0.38941 0.477182 0.0272979
365 1 0.357703 0.462353 0.00678988
375 1 0.389418 0.3363 0.120581
379 1 0.30331 0.410487 0.170775
383 1 0.29799 0.383871 0.0460829
403 1 0.371296 0.444662 0.111386
2722 1 0.465803 0.495832 0.0496946
43 1 0.530662 0.467759 0.0967374
91 1 0.534244 0.442439 0.15696
105 1 0.482069 0.468616 0.0579633
128 1 0.522648 0.38325 0.00624259
142 1 0.478906 0.37081 0.0462389
187 1 0.458337 0.444781 0.125931
244 1 0.503426 0.34909 0.139559
253 1 0.453446 0.465555 0.152162
260 1 0.565902 0.456056 0.0885997
321 1 0.436781 0.424544 0.0141903
327 1 0.446198 0.37782 0.0475525
328 1 0.566037 0.404304 0.0194056
343 1 0.445234 0.472364 0.183243
357 1 0.531273 0.456363 0.187765
364 1 0.503533 0.450708 0.0763216
414 1 0.442002 0.361455 0.104863
427 1 0.537056 0.348134 0.145149
428 1 0.552262 0.415244 0.144804
448 1 0.506206 0.351749 0.0446635
469 1 0.450675 0.391448 0.15156
475 1 0.50549 0.486968 0.195282
486 1 0.522782 0.464104 0.132664
502 1 0.465818 0.411626 0.128927
7 1 0.64448 0.335952 0.0485017
341 1 0.575958 0.494358 0.0184695
434 1 0.573555 0.469367 0.0502435
19 1 0.609001 0.476409 0.149586
33 1 0.653268 0.478678 0.103216
45 1 0.577928 0.41192 0.124009
47 1 0.588313 0.413088 0.0421171
62 1 0.629563 0.454426 0.193801
124 1 0.69043 0.381808 0.0856401
188 1 0.659355 0.471496 0.187391
189 1 0.641887 0.480629 0.139765
200 1 0.666452 0.335797 0.0223547
217 1 0.631201 0.48968 0.0791844
248 1 0.686817 0.489559 0.120463
325 1 0.683283 0.413692 0.0840266
347 1 0.67543 0.440265 0.0264972
415 1 0.651711 0.420309 0.0162463
436 1 0.692418 0.346814 0.105899
443 1 0.678051 0.479399 0.157227
446 1 0.592621 0.438075 0.0658612
459 1 0.624403 0.389049 0.0172742
477 1 0.612931 0.424511 0.17788
488 1 0.591925 0.449081 0.160994
497 1 0.706822 0.343458 0.0297065
435 1 0.844184 0.366708 0.0502932
99 1 0.724528 0.361839 0.0863352
355 1 0.720769 0.338574 0.159187
14 1 0.737552 0.479555 0.0185288
22 1 0.820457 0.377894 0.146503
27 1 0.821906 0.345048 0.0972855
37 1 0.752865 0.47583 0.141945
38 1 0.850588 0.440991 0.184661
41 1 0.844195 0.383398 0.12311
57 1 0.800464 0.408659 0.0700169
65 1 0.760485 0.445301 0.151213
133 1 0.820058 0.490765 0.0315521
151 1 0.75516 0.371932 0.0772469
156 1 0.828379 0.416395 0.19023
216 1 0.840595 0.444468 0.000226588
258 1 0.736036 0.490288 0.0968264
272 1 0.778267 0.378962 0.0238668
367 1 0.770851 0.422897 0.173395
391 1 0.829708 0.391314 0.0322841
402 1 0.778977 0.398288 0.194765
410 1 0.736881 0.462299 0.0798326
424 1 0.777634 0.387913 0.0563808
431 1 0.825378 0.383121 0.180667
444 1 0.78376 0.452804 0.00560165
451 1 0.737523 0.435395 0.0611593
460 1 0.814999 0.462139 0.0145633
181 1 0.827798 0.354551 0.199729
109 1 0.838512 0.405162 0.0020907
2723 1 0.918693 0.491914 0.178085
2458 1 0.996295 0.363192 0.0139882
408 1 0.894061 0.384842 0.0174941
380 1 0.877719 0.392385 0.123267
204 1 0.996609 0.416691 0.101195
472 1 0.989568 0.460617 0.0428247
464 1 0.887509 0.420777 0.00745076
345 1 0.953375 0.356498 0.159881
2235 1 0.909292 0.445795 0.0103901
234 1 0.886457 0.425083 0.117218
336 1 0.960927 0.346987 0.0117033
318 1 0.952959 0.388147 0.0065279
254 1 0.930754 0.381168 0.0359739
29 1 0.965317 0.34016 0.0883908
30 1 0.878087 0.458598 0.187486
42 1 0.898902 0.451461 0.101248
49 1 0.907751 0.376283 0.0646142
55 1 0.942777 0.388606 0.105796
60 1 0.95507 0.460192 0.0778086
76 1 0.92171 0.463998 0.0796299
97 1 0.901267 0.370241 0.133165
154 1 0.991567 0.456099 0.0927767
192 1 0.963716 0.431962 0.179213
201 1 0.878934 0.356587 0.0433175
210 1 0.991854 0.442971 0.167254
224 1 0.973172 0.398193 0.114605
533 1 0.0806691 0.0683263 0.236377
546 1 0.0591298 0.00439433 0.232856
555 1 0.0901096 0.0458228 0.321029
644 1 0.094175 0.1288 0.294958
650 1 0.0336551 0.0847586 0.332398
654 1 0.0249581 0.134053 0.2709
664 1 0.0951651 0.0955715 0.24557
695 1 0.0235342 0.0490105 0.262329
697 1 0.0125196 0.0596923 0.331727
731 1 0.0352031 0.0821177 0.396629
745 1 0.127678 0.163708 0.379662
786 1 0.0961324 0.157497 0.357227
843 1 0.0147729 0.0985329 0.21981
865 1 0.0518436 0.0410082 0.238139
902 1 0.0871188 0.0780901 0.328877
923 1 0.0821273 0.110451 0.32083
924 1 0.0911625 0.129965 0.381574
945 1 0.0985188 0.0155771 0.31173
953 1 0.108138 0.118691 0.265841
958 1 0.00742703 0.0809828 0.377186
803 1 0.0168242 0.160853 0.241035
1474 1 0.125069 0.121852 0.39732
405 1 0.00715301 0.0668135 0.200583
518 1 0.275281 0.119146 0.348481
529 1 0.221673 0.153947 0.223673
536 1 0.271841 0.0168739 0.377088
559 1 0.22584 0.107171 0.283166
566 1 0.247664 0.0727413 0.313421
603 1 0.189925 0.0458685 0.281437
614 1 0.186858 0.101297 0.219191
656 1 0.285571 0.0145678 0.327971
760 1 0.255183 0.100703 0.329668
765 1 0.155992 0.139138 0.344223
775 1 0.194067 0.0140119 0.257337
801 1 0.177815 0.0717409 0.208269
821 1 0.259815 0.0432219 0.311695
858 1 0.204508 0.104607 0.308397
883 1 0.249484 0.143799 0.206444
934 1 0.161153 0.0194577 0.278882
935 1 0.240857 0.0268468 0.381883
957 1 0.212898 0.159318 0.375239
971 1 0.206102 0.124064 0.378822
978 1 0.195031 0.132866 0.227618
989 1 0.251959 0.00381712 0.308413
3116 1 0.372233 0.00302723 0.342084
121 1 0.360768 0.0441567 0.209257
859 1 0.287795 0.145928 0.362171
522 1 0.324918 0.0881367 0.240181
552 1 0.389513 0.140479 0.270085
597 1 0.320486 0.0177487 0.285703
620 1 0.320517 0.0589384 0.344097
624 1 0.301053 0.0299729 0.361356
626 1 0.348067 0.0586753 0.366614
665 1 0.341372 0.079975 0.393326
672 1 0.341909 0.114951 0.391499
684 1 0.393916 0.11469 0.29021
723 1 0.317828 0.0361452 0.315051
739 1 0.428206 0.085453 0.246531
756 1 0.385469 0.0290008 0.224113
772 1 0.38361 0.0425342 0.303169
774 1 0.410381 0.165744 0.259065
882 1 0.371085 0.0337362 0.357628
889 1 0.373725 0.126719 0.384107
920 1 0.402035 0.115465 0.371361
605 1 0.328936 0.157716 0.247866
26 1 0.533044 0.143756 0.202141
512 1 0.566996 0.0586521 0.341869
540 1 0.446755 0.0505753 0.341786
558 1 0.547269 0.0668747 0.366641
604 1 0.565631 0.164363 0.386369
610 1 0.54533 0.118099 0.230192
613 1 0.442889 0.0563194 0.252315
618 1 0.454218 0.0183337 0.338707
631 1 0.505707 0.145801 0.271803
690 1 0.50934 0.146011 0.380319
702 1 0.440221 0.154396 0.245181
741 1 0.562724 0.0253048 0.215111
752 1 0.447788 0.082526 0.334305
820 1 0.523225 0.0483823 0.289931
903 1 0.502123 0.0509367 0.264492
912 1 0.454556 0.164296 0.216605
931 1 0.517596 0.142703 0.240881
933 1 0.490109 0.143896 0.300387
823 1 0.572588 0.103344 0.235719
535 1 0.589597 0.155412 0.357994
541 1 0.660793 0.122102 0.220674
548 1 0.609627 0.137888 0.333205
580 1 0.636911 0.102945 0.229139
586 1 0.604676 0.0861353 0.243237
589 1 0.648724 0.0218736 0.322985
599 1 0.598979 0.0598131 0.395633
600 1 0.694653 0.0900094 0.336628
640 1 0.606616 0.111925 0.311346
642 1 0.665119 0.0959745 0.323815
688 1 0.641537 0.109976 0.376435
692 1 0.593037 0.0189671 0.228623
707 1 0.600145 0.081853 0.281992
710 1 0.713119 0.0630489 0.359361
722 1 0.647224 0.143921 0.373496
743 1 0.657279 0.046406 0.346483
744 1 0.612612 0.0601936 0.217206
747 1 0.650752 0.0379668 0.37903
790 1 0.579815 0.0504279 0.270557
857 1 0.690158 0.0378425 0.283682
904 1 0.58757 0.0659108 0.317159
936 1 0.626409 0.0233759 0.298092
947 1 0.680283 0.0311379 0.252771
951 1 0.705778 0.159951 0.248563
969 1 0.705351 0.11987 0.29816
1340 1 0.618817 0.031769 0.391239
643 1 0.642592 0.16139 0.334806
788 1 0.67916 0.160891 0.354104
824 1 0.716856 0.14698 0.213366
514 1 0.755672 0.0565472 0.231388
530 1 0.854777 0.0346199 0.269589
532 1 0.834226 0.13829 0.390598
537 1 0.768779 0.127992 0.31075
578 1 0.727503 0.126186 0.245254
595 1 0.831795 0.0615302 0.288202
609 1 0.803029 0.14779 0.235971
635 1 0.802081 0.015792 0.355133
641 1 0.751813 0.111201 0.378409
648 1 0.72277 0.106463 0.272982
715 1 0.760607 0.0833434 0.213553
766 1 0.726001 0.101285 0.358906
770 1 0.791368 0.121308 0.287996
777 1 0.827831 0.0240466 0.37505
805 1 0.799437 0.0593689 0.29065
864 1 0.822738 0.0363943 0.208003
877 1 0.801879 0.140029 0.200849
901 1 0.799243 0.119337 0.254702
915 1 0.737362 0.0299152 0.237875
916 1 0.853963 0.164808 0.319887
946 1 0.846163 0.0063139 0.290361
972 1 0.809729 0.0905082 0.239074
991 1 0.839269 0.078924 0.228049
737 1 0.844732 0.0219487 0.233245
594 1 0.852432 0.165169 0.376288
818 1 0.998278 0.0669461 0.270692
863 1 0.866246 0.0652436 0.244523
974 1 0.860374 0.0108771 0.376401
506 1 0.88215 0.027524 0.398993
519 1 0.923783 0.0457191 0.353075
549 1 0.938238 0.0144365 0.23149
565 1 0.98727 0.163944 0.265571
598 1 0.919938 0.0692326 0.298144
630 1 0.982657 0.044382 0.331612
633 1 0.977517 0.132335 0.338908
636 1 0.97284 0.0169007 0.385769
657 1 0.948971 0.117987 0.329759
661 1 0.97917 0.0508905 0.212679
718 1 0.97575 0.0700634 0.38827
754 1 0.953769 0.0306441 0.257992
773 1 0.917339 0.129647 0.282258
784 1 0.916244 0.125693 0.337127
796 1 0.910354 0.142574 0.217617
829 1 0.990809 0.119654 0.252616
833 1 0.896405 0.159312 0.343919
837 1 0.906588 0.136035 0.374252
899 1 0.899052 0.0686483 0.235997
919 1 0.941395 0.0545056 0.278225
922 1 0.957362 0.044828 0.361439
504 1 0.131678 0.22788 0.314556
505 1 0.0379416 0.323032 0.311398
553 1 0.0700536 0.331732 0.252057
557 1 0.102126 0.24559 0.379879
574 1 0.108601 0.196706 0.252639
602 1 0.0220755 0.218523 0.394739
607 1 0.1161 0.323764 0.290189
616 1 0.0423527 0.255312 0.269745
621 1 0.00617607 0.311548 0.233023
629 1 0.0946273 0.239645 0.30551
638 1 0.067926 0.247582 0.207978
651 1 0.110618 0.193963 0.286339
659 1 0.0696225 0.297668 0.385988
662 1 0.0753817 0.176767 0.33752
663 1 0.0541025 0.196918 0.352825
679 1 0.0964882 0.273364 0.398954
689 1 0.0837972 0.208199 0.234265
693 1 0.130604 0.297606 0.303543
699 1 0.0185074 0.231118 0.223084
716 1 0.0326052 0.166735 0.210465
794 1 0.0451319 0.247727 0.237107
798 1 0.0055432 0.222263 0.368023
815 1 0.0896369 0.216856 0.391301
880 1 0.0122605 0.294804 0.310933
891 1 0.0349589 0.296337 0.232213
894 1 0.109563 0.24641 0.345361
930 1 0.0855181 0.181532 0.305347
970 1 0.128409 0.235313 0.226677
985 1 0.0803257 0.320324 0.364101
781 1 0.00224165 0.332744 0.299239
793 1 0.148027 0.25825 0.33703
521 1 0.211435 0.259224 0.326998
526 1 0.260405 0.301347 0.344207
527 1 0.224689 0.260242 0.266009
544 1 0.209736 0.176644 0.345594
554 1 0.192674 0.288096 0.220458
556 1 0.201669 0.193273 0.318636
568 1 0.177881 0.253636 0.318919
576 1 0.249929 0.302136 0.26957
583 1 0.158255 0.213436 0.208968
647 1 0.186014 0.196475 0.206568
652 1 0.268583 0.314234 0.374415
698 1 0.224359 0.243177 0.355025
721 1 0.263994 0.317983 0.314777
762 1 0.277892 0.193569 0.205268
763 1 0.211355 0.225245 0.380696
808 1 0.167497 0.167128 0.26172
816 1 0.172326 0.242176 0.287307
855 1 0.260323 0.211969 0.291479
896 1 0.185542 0.233332 0.39976
984 1 0.229937 0.265871 0.298435
412 1 0.202483 0.311929 0.200798
570 1 0.39277 0.197187 0.21068
615 1 0.335563 0.307603 0.268727
617 1 0.334993 0.244101 0.282124
619 1 0.411042 0.293445 0.393099
668 1 0.351309 0.325637 0.330778
736 1 0.341001 0.238368 0.319814
761 1 0.40129 0.1982 0.248701
764 1 0.356451 0.177776 0.314094
768 1 0.290761 0.225656 0.35801
771 1 0.330363 0.275215 0.270072
785 1 0.34521 0.264078 0.341098
802 1 0.425271 0.326529 0.236607
817 1 0.298501 0.313336 0.215629
827 1 0.37504 0.259532 0.216799
870 1 0.33265 0.186231 0.262148
878 1 0.344032 0.204794 0.294491
881 1 0.409623 0.325218 0.273212
949 1 0.386936 0.231227 0.228186
539 1 0.430106 0.272788 0.365951
515 1 0.452445 0.264998 0.394867
543 1 0.482416 0.286913 0.224569
550 1 0.45645 0.182848 0.391718
579 1 0.457791 0.197919 0.286352
584 1 0.550299 0.325097 0.36017
611 1 0.532408 0.253794 0.299812
660 1 0.441863 0.255944 0.337817
687 1 0.554348 0.309071 0.330798
700 1 0.454844 0.235936 0.232217
711 1 0.549432 0.194024 0.387956
726 1 0.482203 0.183033 0.208134
734 1 0.455575 0.270746 0.241879
787 1 0.498068 0.320084 0.388854
807 1 0.434662 0.170528 0.3692
849 1 0.467401 0.189309 0.316838
913 1 0.465679 0.322999 0.390365
918 1 0.480586 0.217386 0.214417
938 1 0.559452 0.17814 0.32085
961 1 0.473276 0.247713 0.330098
963 1 0.531233 0.310552 0.386328
982 1 0.435397 0.29446 0.259161
720 1 0.50181 0.272306 0.200245
507 1 0.701005 0.256942 0.36144
511 1 0.582844 0.20154 0.331269
531 1 0.621666 0.212146 0.338327
545 1 0.631444 0.298353 0.260091
551 1 0.630737 0.20676 0.26531
588 1 0.692972 0.242702 0.332841
590 1 0.673712 0.223099 0.31284
627 1 0.589161 0.174576 0.202392
694 1 0.601899 0.194674 0.36886
776 1 0.613427 0.316357 0.327438
797 1 0.626764 0.28923 0.33992
804 1 0.668366 0.323738 0.375514
838 1 0.635804 0.216895 0.202311
842 1 0.599094 0.294886 0.253805
868 1 0.576272 0.234359 0.317444
876 1 0.647178 0.188633 0.242975
921 1 0.650521 0.199431 0.323089
925 1 0.603906 0.326566 0.20578
944 1 0.610313 0.236722 0.210118
962 1 0.632937 0.196385 0.392723
990 1 0.638971 0.262401 0.354101
562 1 0.709216 0.170874 0.349137
646 1 0.711077 0.307642 0.34432
1154 1 0.656282 0.221118 0.398977
769 1 0.734881 0.172499 0.326159
853 1 0.716063 0.232656 0.212445
523 1 0.849971 0.322383 0.340427
538 1 0.783506 0.311255 0.307567
581 1 0.794446 0.197282 0.338373
632 1 0.725904 0.175367 0.293719
670 1 0.804964 0.331015 0.206178
682 1 0.844737 0.287336 0.397887
683 1 0.790413 0.228921 0.286768
685 1 0.779081 0.280475 0.385706
696 1 0.831958 0.309576 0.26741
709 1 0.803584 0.259668 0.393928
713 1 0.738981 0.240739 0.23669
758 1 0.799526 0.308157 0.276798
812 1 0.74034 0.229516 0.325704
814 1 0.85343 0.201065 0.226531
828 1 0.835917 0.254916 0.37222
834 1 0.728078 0.280922 0.295306
835 1 0.770658 0.248759 0.226872
840 1 0.77628 0.303091 0.250905
846 1 0.767843 0.178534 0.334259
884 1 0.814765 0.174876 0.253292
886 1 0.753573 0.295245 0.310491
892 1 0.836481 0.191409 0.2724
907 1 0.832393 0.196273 0.377758
980 1 0.777302 0.320904 0.222257
746 1 0.843987 0.224261 0.360344
307 1 0.882808 0.209505 0.214228
575 1 0.860749 0.305945 0.366479
542 1 0.969671 0.181613 0.373392
560 1 0.989154 0.212484 0.206164
563 1 0.921223 0.307679 0.208794
577 1 0.927331 0.323034 0.268895
593 1 0.954372 0.326376 0.339404
622 1 0.89005 0.229325 0.283345
667 1 0.94724 0.283159 0.315704
669 1 0.964561 0.236772 0.278757
671 1 0.904946 0.241792 0.344872
674 1 0.913187 0.235325 0.305694
675 1 0.960536 0.272405 0.265968
681 1 0.956488 0.22237 0.213643
712 1 0.947073 0.255784 0.23614
725 1 0.864078 0.209104 0.277276
732 1 0.9121 0.330975 0.232013
750 1 0.982456 0.295924 0.332618
783 1 0.927054 0.31242 0.357667
789 1 0.950516 0.184745 0.316956
799 1 0.869727 0.220458 0.337961
800 1 0.97359 0.169641 0.298468
847 1 0.938197 0.281821 0.383176
873 1 0.950926 0.213509 0.253476
897 1 0.980859 0.331135 0.227029
898 1 0.957303 0.269759 0.351613
909 1 0.908092 0.27606 0.355254
942 1 0.894072 0.192351 0.337069
952 1 0.939706 0.294946 0.284179
987 1 0.92919 0.210146 0.334271
956 1 0.0880158 0.344565 0.342346
516 1 0.0859116 0.337729 0.281696
592 1 0.0636686 0.498112 0.34114
606 1 0.0968989 0.45552 0.315463
623 1 0.107884 0.365782 0.243982
705 1 0.0616091 0.383679 0.322758
735 1 0.0768154 0.438872 0.263167
738 1 0.0123588 0.410387 0.374616
748 1 0.0895633 0.429079 0.293873
753 1 0.109718 0.470453 0.396833
778 1 0.00602442 0.446448 0.21527
813 1 0.0655214 0.345337 0.311071
826 1 0.131208 0.447023 0.248133
854 1 0.0114726 0.38402 0.262251
862 1 0.014094 0.446979 0.377065
875 1 0.0970824 0.401407 0.316138
895 1 0.0859679 0.473371 0.34145
900 1 0.0540013 0.458988 0.248234
917 1 0.10701 0.373555 0.347235
941 1 0.0809104 0.402809 0.355439
954 1 0.0320531 0.397898 0.201362
976 1 0.0205868 0.465192 0.240995
850 1 0.139947 0.358423 0.219074
3209 1 0.146785 0.499469 0.222556
649 1 0.144678 0.470789 0.266104
534 1 0.188085 0.467486 0.381546
569 1 0.171106 0.494612 0.358015
582 1 0.198963 0.356305 0.32363
596 1 0.184782 0.436418 0.241095
653 1 0.164702 0.439223 0.326871
714 1 0.145727 0.376034 0.256904
724 1 0.229455 0.372405 0.327879
730 1 0.183892 0.428072 0.273153
780 1 0.162162 0.495723 0.27806
782 1 0.255479 0.356479 0.312858
819 1 0.167663 0.401313 0.362431
822 1 0.233626 0.398085 0.349245
836 1 0.245703 0.48262 0.291784
844 1 0.280936 0.342755 0.385607
852 1 0.241637 0.395704 0.219638
874 1 0.175708 0.483879 0.217194
908 1 0.184712 0.460612 0.342795
910 1 0.170407 0.342659 0.315263
911 1 0.267769 0.357252 0.247455
914 1 0.194992 0.364116 0.389018
926 1 0.259537 0.336814 0.277592
950 1 0.281936 0.341321 0.221329
967 1 0.17044 0.385583 0.225108
968 1 0.177003 0.343824 0.36993
981 1 0.266217 0.46105 0.384004
988 1 0.256175 0.486151 0.364836
1224 1 0.291526 0.397557 0.396224
561 1 0.343464 0.475025 0.263789
601 1 0.34756 0.400858 0.282563
612 1 0.374057 0.465305 0.257111
708 1 0.403603 0.459854 0.243997
742 1 0.398879 0.4056 0.203308
755 1 0.298661 0.425163 0.329335
831 1 0.418294 0.461735 0.3419